TITLE     = "Fluent Common Fluid Files Data"
VARIABLES = "X"
"Y"
"Static Pressure"
DATASETAUXDATA Common.DensityVar="7"
DATASETAUXDATA Common.PressureVar="15"
DATASETAUXDATA Common.TemperatureVar="17"
DATASETAUXDATA Common.TurbulentDynamicViscosityVar="12"
DATASETAUXDATA Common.TurbulentKineticEnergyVar="10"
DATASETAUXDATA Common.UVar="18"
DATASETAUXDATA Common.VectorVarsAreVelocity="True"
DATASETAUXDATA Common.ViscosityVar="11"
DATASETAUXDATA Common.VVar="19"
DATASETAUXDATA Common.WVar="20"
ZONE T="Slice: Y=-1.48"
 STRANDID=7, SOLUTIONTIME=0
 Nodes=542, Elements=542, ZONETYPE=FELineSeg
 DATAPACKING=BLOCK
 DT=(DOUBLE DOUBLE DOUBLE )
 2.539488920E+00 2.539490630E+00 2.537840056E+00 2.539491884E+00 2.536119338E+00
 2.539493149E+00 2.534402100E+00 2.539494426E+00 2.532676862E+00 2.539495196E+00
 2.530950816E+00 2.539495432E+00 2.529226401E+00 2.539495685E+00 2.527502732E+00
 2.539495954E+00 2.525773750E+00 2.539496239E+00 2.524045487E+00 2.539496541E+00
 2.520604533E+00 2.521809178E+00 2.522318042E+00 2.539496859E+00 2.518901075E+00
 2.539497290E+00 2.517187445E+00 2.539497954E+00 2.515473960E+00 2.539499068E+00
 2.513757641E+00 2.539500193E+00 2.512042153E+00 2.539501331E+00 2.510336256E+00
 2.539502481E+00 2.508629984E+00 2.539503644E+00 2.506928039E+00 2.539504815E+00
 2.505216178E+00 2.539505994E+00 2.503496960E+00 2.539507184E+00 2.501780267E+00
 2.539508386E+00 2.500065726E+00 2.539509600E+00 2.498349364E+00 2.539510545E+00
 2.496634636E+00 2.539510628E+00 2.494921250E+00 2.539510729E+00 2.493209613E+00
 2.539510848E+00 2.491477825E+00 2.539510984E+00 2.489741442E+00 2.539511138E+00
 2.488016223E+00 2.539511309E+00 2.486296220E+00 2.539510933E+00 2.484572761E+00
 2.537695485E+00 2.482838752E+00 2.535885260E+00 2.481104740E+00 2.534063549E+00
 2.479371634E+00 2.532233819E+00 2.477635556E+00 2.530398053E+00 2.475896464E+00
 2.528560134E+00 2.474155395E+00 2.526708976E+00 2.472415412E+00 2.524865147E+00
 2.470676029E+00 2.523015775E+00 2.468936150E+00 2.521159418E+00 2.467190659E+00
 2.519306027E+00 2.465418062E+00 2.517458520E+00 2.463642358E+00 2.515614204E+00
 2.461878849E+00 2.513774666E+00 2.460117421E+00 2.511945405E+00 2.458349920E+00
 2.510108712E+00 2.456578956E+00 2.508282723E+00 2.454799533E+00 2.506465142E+00
 2.453007475E+00 2.504653158E+00 2.451214949E+00 2.502846969E+00 2.449420163E+00
 2.501043711E+00 2.447627954E+00 2.499243492E+00 2.445829458E+00 2.497443655E+00
 2.444018834E+00 2.495644869E+00 2.442196989E+00 2.493846017E+00 2.440365057E+00
 2.492045452E+00 2.438531200E+00 2.490244531E+00 2.436683723E+00 2.488441339E+00
 2.434835916E+00 2.486633844E+00 2.432974724E+00 2.484826020E+00 2.431110979E+00
 2.483012915E+00 2.429237082E+00 2.481199266E+00 2.427352983E+00 2.479381085E+00
 2.425461603E+00 2.477557016E+00 2.423553260E+00 2.475733386E+00 2.421637160E+00
 2.473903383E+00 2.419707839E+00 2.472077143E+00 2.417769982E+00 2.470244275E+00
 2.415823781E+00 2.468410798E+00 2.413862784E+00 2.466580223E+00 2.411880458E+00
 2.464743738E+00 2.409888100E+00 2.462912000E+00 2.407886951E+00 2.461079699E+00
 2.406724506E+00 2.459251062E+00 2.405895647E+00 2.457420987E+00 2.403918405E+00
 2.455589554E+00 2.401921045E+00 2.453764414E+00 2.399926438E+00 2.451934385E+00
 2.397921299E+00 2.450108880E+00 2.397364602E+00 2.448287516E+00 2.396811826E+00
 2.446465533E+00 2.396260047E+00 2.444650290E+00 2.395705726E+00 2.442845206E+00
 2.395150744E+00 2.441042158E+00 2.394599044E+00 2.439242386E+00 2.394053369E+00
 2.437449498E+00 2.393515634E+00 2.435655226E+00 2.392989480E+00 2.433861302E+00
 2.392479059E+00 2.432068847E+00 2.391988689E+00 2.430280230E+00 2.391532989E+00
 2.428496960E+00 2.391136506E+00 2.426713459E+00 2.390800005E+00 2.424941002E+00
 2.390550620E+00 2.423167827E+00 2.390463314E+00 2.421400519E+00 2.390477037E+00
 2.419640258E+00 2.390571654E+00 2.417885838E+00 2.390799729E+00 2.416143645E+00
 2.391170019E+00 2.414402572E+00 2.391618421E+00 2.412677023E+00 2.392120050E+00
 2.410959844E+00 2.392683928E+00 2.409253638E+00 2.393283123E+00 2.407569003E+00
 2.393869978E+00 2.405888403E+00 2.394457459E+00 2.404231251E+00 2.395083211E+00
 2.402594609E+00 2.395754271E+00 2.400981112E+00 2.396452136E+00 2.399415178E+00
 2.397156614E+00 2.397859968E+00 -7.036664825E+01 -6.894029162E+01 -6.751315262E+01
 -7.211550460E+01 -6.604412649E+01 -7.384855605E+01 -6.454525715E+01 -7.550780473E+01
 -6.304682442E+01 -7.714527015E+01 -6.148520360E+01 -7.871043240E+01 -5.992200568E+01
 -8.024709719E+01 -5.833058652E+01 -8.171422814E+01 -5.670570140E+01 -8.314649190E+01
 -5.507980586E+01 -8.451088158E+01 -5.340480552E+01 -8.583534942E+01 -5.172322470E+01
 -8.709251465E+01 -5.002364723E+01 -8.887470345E+01 -8.830667781E+01 -8.945309681E+01
 -4.828926837E+01 -9.055382971E+01 -4.655484770E+01 -9.158588643E+01 -4.478259645E+01
 -9.257169526E+01 -4.300210608E+01 -9.348535069E+01 -4.121527243E+01 -9.435483646E+01
 -3.938381010E+01 -9.514643218E+01 -3.570563212E+01 -3.583958260E+01 -3.755984458E+01
 -9.589888167E+01 -3.384617289E+01 -9.656540704E+01 -3.197299673E+01 -9.720009207E+01
 -3.008015596E+01 -9.773865028E+01 -2.818808140E+01 -9.803045254E+01 -2.626839904E+01
 -9.831542939E+01 -2.435001374E+01 -9.854130190E+01 -2.241572493E+01 -9.876724898E+01
 -2.047447237E+01 -9.899314389E+01 -1.852401768E+01 -9.916603655E+01 -1.656689924E+01
 -9.932640808E+01 -1.460023474E+01 -9.948694384E+01 -1.263389855E+01 -9.961047711E+01
 -1.065437767E+01 -6.894494642E+01 -7.036664838E+01 -7.205204376E+01 -9.970616356E+01
 -8.680359625E+00 -6.752247578E+01 -7.372149922E+01 -9.980176676E+01 -6.691826263E+00
 -6.605879760E+01 -7.532778896E+01 -9.987306839E+01 -4.711762867E+00 -6.456483033E+01
 -7.690465340E+01 -9.990477802E+01 -2.718790464E+00 -6.307134958E+01 -7.842819516E+01
 -9.993651513E+01 -7.353545071E-01 -6.151589982E+01 -7.990826651E+01 -9.995236878E+01
 1.258292735E+00 -5.995786665E+01 -8.134540295E+01 -9.992065567E+01 3.241743657E+00
 -5.837321103E+01 -8.272497228E+01 -9.988891951E+01 5.233928302E+00 -5.675363916E+01
 -8.407203196E+01 -9.984968391E+01 7.213170066E+00 -5.513320014E+01 -8.534781282E+01
 -9.975395621E+01 9.201848109E+00 -5.346556284E+01 -8.660109498E+01 -9.965836702E+01
 1.117386875E+01 -5.178956882E+01 -8.819252528E+01 -8.777027744E+01 -8.892607277E+01
 -9.956264214E+01 1.315392759E+01 -5.009782264E+01 -8.998636463E+01 -9.940669091E+01
 1.511683236E+01 -4.836908003E+01 -9.104099856E+01 -9.924615791E+01 1.708355435E+01
 -4.664058828E+01 -9.199058870E+01 -9.908573904E+01 1.903646113E+01 -4.487652671E+01
 -9.293996040E+01 -9.887997051E+01 2.098570998E+01 -4.310198364E+01 -9.377798406E+01
 -9.865406797E+01 2.292736558E+01 -4.132367263E+01 -9.461547466E+01 -9.842805172E+01
 2.485645024E+01 -3.949807232E+01 -9.534415653E+01 -9.817594343E+01 2.677496441E+01
 -3.768046547E+01 -9.606879024E+01 -9.788396624E+01 2.868776718E+01 -3.398163904E+01
 -3.551941687E+01 -3.583486014E+01 -9.668534237E+01 -9.759211376E+01 3.057925792E+01
 -3.211723797E+01 -9.729647354E+01 3.246797572E+01 -3.023040341E+01 3.433725241E+01
 -2.834505094E+01 3.619733474E+01 -2.643397401E+01 3.637868822E+01 -2.452204724E+01
 3.804205082E+01 -2.259636295E+01 3.986552280E+01 -2.066118317E+01 4.169089530E+01
 -1.871773544E+01 4.347325679E+01 -1.676881303E+01 4.525428149E+01 -1.480873667E+01
 4.701451935E+01 -1.285043790E+01 4.874828425E+01 -1.087755374E+01 5.047993113E+01
 -8.911352941E+00 5.216938782E+01 -6.928897582E+00 5.385115329E+01 -4.956135820E+00
 5.551177711E+01 -2.970200706E+00 5.713724583E+01 -9.934911340E-01 5.876284522E+01
 9.934855881E-01 6.033821900E+01 2.970194971E+00 6.190156327E+01 4.956128941E+00
 6.344661966E+01 6.928889936E+00 6.494494716E+01 8.911347017E+00 6.644422697E+01
 1.087754939E+01 6.789515435E+01 1.285043418E+01 6.932240209E+01 1.480873341E+01
 7.074571310E+01 1.676880972E+01 7.245922916E+01 1.871773064E+01 7.417322070E+01
 2.066117777E+01 7.579605294E+01 2.259635905E+01 7.741551588E+01 2.452204364E+01
 7.894691658E+01 2.643397117E+01 8.046668361E+01 2.834504868E+01 8.190297772E+01
 3.023040021E+01 8.331950123E+01 3.211723508E+01 8.465621406E+01 3.398163818E+01
 8.596613305E+01 3.551945215E+01 8.719897315E+01 3.583485943E+01 8.895855254E+01
 8.839981565E+01 8.952544483E+01 3.768046361E+01 9.061410656E+01 3.949806964E+01
 9.162904258E+01 4.132367181E+01 9.260405346E+01 4.310198396E+01 9.350436542E+01
 4.487652682E+01 9.436433835E+01 4.664058812E+01 9.514642677E+01 4.836907976E+01
 9.589065773E+01 5.009782235E+01 9.655154314E+01 5.178957053E+01 9.717930698E+01
 5.346556451E+01 9.771608974E+01 5.513319973E+01 9.800879837E+01 5.675363737E+01
 9.829935998E+01 5.837321001E+01 9.852593648E+01 5.995786579E+01 9.875258577E+01
 6.151589876E+01 9.897918168E+01 6.307134946E+01 9.915662949E+01 6.456483088E+01
 9.931750372E+01 6.605879805E+01 9.947853574E+01 6.752247574E+01 9.960576768E+01
 6.894494651E+01 7.205120393E+01 7.036664822E+01 9.970175612E+01 7.371982128E+01
 9.979765382E+01 7.532541462E+01 9.987179982E+01 7.690148997E+01 9.990360606E+01
 7.842449004E+01 9.993544238E+01 7.990382319E+01 9.995334046E+01 8.134057623E+01
 9.992153144E+01 8.271946064E+01 9.988969649E+01 8.406629810E+01 9.985171559E+01
 8.534144639E+01 9.975568372E+01 8.659468276E+01 9.965979636E+01 8.818364215E+01
 8.776328905E+01 9.956377801E+01 8.891920998E+01 9.940809382E+01 8.997898232E+01
 9.924705975E+01 9.103391759E+01 9.908613941E+01 9.198304732E+01 9.887982798E+01
 9.293201085E+01 9.865321962E+01 9.377050691E+01 9.842649665E+01 9.460763270E+01
 9.817301599E+01 9.533697634E+01 9.788012477E+01 9.606125155E+01 9.758736121E+01
 9.667868785E+01 9.728970090E+01
 -1.480000000E+00 -1.480000000E+00 -1.480000000E+00 -1.480000000E+00 -1.480000000E+00
 -1.480000000E+00 -1.480000000E+00 -1.480000000E+00 -1.480000000E+00 -1.480000000E+00
 -1.480000000E+00 -1.480000000E+00 -1.480000000E+00 -1.480000000E+00 -1.480000000E+00
 -1.480000000E+00 -1.480000000E+00 -1.480000000E+00 -1.480000000E+00 -1.480000000E+00
 -1.480000000E+00 -1.480000000E+00 -1.480000000E+00 -1.480000000E+00 -1.480000000E+00
 -1.480000000E+00 -1.480000000E+00 -1.480000000E+00 -1.480000000E+00 -1.480000000E+00
 -1.480000000E+00 -1.480000000E+00 -1.480000000E+00 -1.480000000E+00 -1.480000000E+00
 -1.480000000E+00 -1.480000000E+00 -1.480000000E+00 -1.480000000E+00 -1.480000000E+00
 -1.480000000E+00 -1.480000000E+00 -1.480000000E+00 -1.480000000E+00 -1.480000000E+00
 -1.480000000E+00 -1.480000000E+00 -1.480000000E+00 -1.480000000E+00 -1.480000000E+00
 -1.480000000E+00 -1.480000000E+00 -1.480000000E+00 -1.480000000E+00 -1.480000000E+00
 -1.480000000E+00 -1.480000000E+00 -1.480000000E+00 -1.480000000E+00 -1.480000000E+00
 -1.480000000E+00 -1.480000000E+00 -1.480000000E+00 -1.480000000E+00 -1.480000000E+00
 -1.480000000E+00 -1.480000000E+00 -1.480000000E+00 -1.480000000E+00 -1.480000000E+00
 -1.480000000E+00 -1.480000000E+00 -1.480000000E+00 -1.480000000E+00 -1.480000000E+00
 -1.480000000E+00 -1.480000000E+00 -1.480000000E+00 -1.480000000E+00 -1.480000000E+00
 -1.480000000E+00 -1.480000000E+00 -1.480000000E+00 -1.480000000E+00 -1.480000000E+00
 -1.480000000E+00 -1.480000000E+00 -1.480000000E+00 -1.480000000E+00 -1.480000000E+00
 -1.480000000E+00 -1.480000000E+00 -1.480000000E+00 -1.480000000E+00 -1.480000000E+00
 -1.480000000E+00 -1.480000000E+00 -1.480000000E+00 -1.480000000E+00 -1.480000000E+00
 -1.480000000E+00 -1.480000000E+00 -1.480000000E+00 -1.480000000E+00 -1.480000000E+00
 -1.480000000E+00 -1.480000000E+00 -1.480000000E+00 -1.480000000E+00 -1.480000000E+00
 -1.480000000E+00 -1.480000000E+00 -1.480000000E+00 -1.480000000E+00 -1.480000000E+00
 -1.480000000E+00 -1.480000000E+00 -1.480000000E+00 -1.480000000E+00 -1.480000000E+00
 -1.480000000E+00 -1.480000000E+00 -1.480000000E+00 -1.480000000E+00 -1.480000000E+00
 -1.480000000E+00 -1.480000000E+00 -1.480000000E+00 -1.480000000E+00 -1.480000000E+00
 -1.480000000E+00 -1.480000000E+00 -1.480000000E+00 -1.480000000E+00 -1.480000000E+00
 -1.480000000E+00 -1.480000000E+00 -1.480000000E+00 -1.480000000E+00 -1.480000000E+00
 -1.480000000E+00 -1.480000000E+00 -1.480000000E+00 -1.480000000E+00 -1.480000000E+00
 -1.480000000E+00 -1.480000000E+00 -1.480000000E+00 -1.480000000E+00 -1.480000000E+00
 -1.480000000E+00 -1.480000000E+00 -1.480000000E+00 -1.480000000E+00 -1.480000000E+00
 -1.480000000E+00 -1.480000000E+00 -1.480000000E+00 -1.480000000E+00 -1.480000000E+00
 -1.480000000E+00 -1.480000000E+00 -1.480000000E+00 -1.480000000E+00 -1.480000000E+00
 -1.480000000E+00 -1.480000000E+00 -1.480000000E+00 -1.480000000E+00 -1.480000000E+00
 -1.480000000E+00 -1.480000000E+00 -1.480000000E+00 -1.480000000E+00 -1.480000000E+00
 -1.480000000E+00 -1.480000000E+00 -1.480000000E+00 -1.480000000E+00 -1.480000000E+00
 -1.480000000E+00 -1.480000000E+00 -1.480000000E+00 -1.480000000E+00 -1.480000000E+00
 -1.480000000E+00 -1.480000000E+00 -1.480000000E+00 -1.480000000E+00 -1.480000000E+00
 -1.480000000E+00 -1.480000000E+00 -1.480000000E+00 -1.480000000E+00 -1.480000000E+00
 -1.480000000E+00 -1.480000000E+00 -1.480000000E+00 -1.480000000E+00 -1.480000000E+00
 -1.480000000E+00 -1.480000000E+00 -1.480000000E+00 -1.480000000E+00 -1.480000000E+00
 -1.480000000E+00 -1.480000000E+00 -1.480000000E+00 -1.480000000E+00 -1.480000000E+00
 -1.480000000E+00 -1.480000000E+00 -1.480000000E+00 -1.480000000E+00 -1.480000000E+00
 -1.480000000E+00 -1.480000000E+00 -1.480000000E+00 -1.480000000E+00 -1.480000000E+00
 -1.480000000E+00 -1.480000000E+00 -1.480000000E+00 -1.480000000E+00 -1.480000000E+00
 -1.480000000E+00 -1.480000000E+00 -1.480000000E+00 -1.480000000E+00 -1.480000000E+00
 -1.480000000E+00 -1.480000000E+00 -1.480000000E+00 -1.480000000E+00 -1.480000000E+00
 -1.480000000E+00 -1.480000000E+00 -1.480000000E+00 -1.480000000E+00 -1.480000000E+00
 -1.480000000E+00 -1.480000000E+00 -1.480000000E+00 -1.480000000E+00 -1.480000000E+00
 -1.480000000E+00 -1.480000000E+00 -1.480000000E+00 -1.480000000E+00 -1.480000000E+00
 -1.480000000E+00 -1.480000000E+00 -1.480000000E+00 -1.480000000E+00 -1.480000000E+00
 -1.480000000E+00 -1.480000000E+00 -1.480000000E+00 -1.480000000E+00 -1.480000000E+00
 -1.480000000E+00 -1.480000000E+00 -1.480000000E+00 -1.480000000E+00 -1.480000000E+00
 -1.480000000E+00 -1.480000000E+00 -1.480000000E+00 -1.480000000E+00 -1.480000000E+00
 -1.480000000E+00 -1.480000000E+00 -1.480000000E+00 -1.480000000E+00 -1.480000000E+00
 -1.480000000E+00 -1.480000000E+00 -1.480000000E+00 -1.480000000E+00 -1.480000000E+00
 -1.480000000E+00 -1.480000000E+00 -1.480000000E+00 -1.480000000E+00 -1.480000000E+00
 -1.480000000E+00 -1.480000000E+00 -1.480000000E+00 -1.480000000E+00 -1.480000000E+00
 -1.480000000E+00 -1.480000000E+00 -1.480000000E+00 -1.480000000E+00 -1.480000000E+00
 -1.480000000E+00 -1.480000000E+00 -1.480000000E+00 -1.480000000E+00 -1.480000000E+00
 -1.480000000E+00 -1.480000000E+00 -1.480000000E+00 -1.480000000E+00 -1.480000000E+00
 -1.480000000E+00 -1.480000000E+00 -1.480000000E+00 -1.480000000E+00 -1.480000000E+00
 -1.480000000E+00 -1.480000000E+00 -1.480000000E+00 -1.480000000E+00 -1.480000000E+00
 -1.480000000E+00 -1.480000000E+00 -1.480000000E+00 -1.480000000E+00 -1.480000000E+00
 -1.480000000E+00 -1.480000000E+00 -1.480000000E+00 -1.480000000E+00 -1.480000000E+00
 -1.480000000E+00 -1.480000000E+00 -1.480000000E+00 -1.480000000E+00 -1.480000000E+00
 -1.480000000E+00 -1.480000000E+00 -1.480000000E+00 -1.480000000E+00 -1.480000000E+00
 -1.480000000E+00 -1.480000000E+00 -1.480000000E+00 -1.480000000E+00 -1.480000000E+00
 -1.480000000E+00 -1.480000000E+00 -1.480000000E+00 -1.480000000E+00 -1.480000000E+00
 -1.480000000E+00 -1.480000000E+00 -1.480000000E+00 -1.480000000E+00 -1.480000000E+00
 -1.480000000E+00 -1.480000000E+00 -1.480000000E+00 -1.480000000E+00 -1.480000000E+00
 -1.480000000E+00 -1.480000000E+00 -1.480000000E+00 -1.480000000E+00 -1.480000000E+00
 -1.480000000E+00 -1.480000000E+00 -1.480000000E+00 -1.480000000E+00 -1.480000000E+00
 -1.480000000E+00 -1.480000000E+00 -1.480000000E+00 -1.480000000E+00 -1.480000000E+00
 -1.480000000E+00 -1.480000000E+00 -1.480000000E+00 -1.480000000E+00 -1.480000000E+00
 -1.480000000E+00 -1.480000000E+00 -1.480000000E+00 -1.480000000E+00 -1.480000000E+00
 -1.480000000E+00 -1.480000000E+00 -1.480000000E+00 -1.480000000E+00 -1.480000000E+00
 -1.480000000E+00 -1.480000000E+00 -1.480000000E+00 -1.480000000E+00 -1.480000000E+00
 -1.480000000E+00 -1.480000000E+00 -1.480000000E+00 -1.480000000E+00 -1.480000000E+00
 -1.480000000E+00 -1.480000000E+00 -1.480000000E+00 -1.480000000E+00 -1.480000000E+00
 -1.480000000E+00 -1.480000000E+00 -1.480000000E+00 -1.480000000E+00 -1.480000000E+00
 -1.480000000E+00 -1.480000000E+00 -1.480000000E+00 -1.480000000E+00 -1.480000000E+00
 -1.480000000E+00 -1.480000000E+00 -1.480000000E+00 -1.480000000E+00 -1.480000000E+00
 -1.480000000E+00 -1.480000000E+00 -1.480000000E+00 -1.480000000E+00 -1.480000000E+00
 -1.480000000E+00 -1.480000000E+00 -1.480000000E+00 -1.480000000E+00 -1.480000000E+00
 -1.480000000E+00 -1.480000000E+00 -1.480000000E+00 -1.480000000E+00 -1.480000000E+00
 -1.480000000E+00 -1.480000000E+00 -1.480000000E+00 -1.480000000E+00 -1.480000000E+00
 -1.480000000E+00 -1.480000000E+00 -1.480000000E+00 -1.480000000E+00 -1.480000000E+00
 -1.480000000E+00 -1.480000000E+00 -1.480000000E+00 -1.480000000E+00 -1.480000000E+00
 -1.480000000E+00 -1.480000000E+00 -1.480000000E+00 -1.480000000E+00 -1.480000000E+00
 -1.480000000E+00 -1.480000000E+00 -1.480000000E+00 -1.480000000E+00 -1.480000000E+00
 -1.480000000E+00 -1.480000000E+00 -1.480000000E+00 -1.480000000E+00 -1.480000000E+00
 -1.480000000E+00 -1.480000000E+00 -1.480000000E+00 -1.480000000E+00 -1.480000000E+00
 -1.480000000E+00 -1.480000000E+00 -1.480000000E+00 -1.480000000E+00 -1.480000000E+00
 -1.480000000E+00 -1.480000000E+00 -1.480000000E+00 -1.480000000E+00 -1.480000000E+00
 -1.480000000E+00 -1.480000000E+00 -1.480000000E+00 -1.480000000E+00 -1.480000000E+00
 -1.480000000E+00 -1.480000000E+00 -1.480000000E+00 -1.480000000E+00 -1.480000000E+00
 -1.480000000E+00 -1.480000000E+00 -1.480000000E+00 -1.480000000E+00 -1.480000000E+00
 -1.480000000E+00 -1.480000000E+00 -1.480000000E+00 -1.480000000E+00 -1.480000000E+00
 -1.480000000E+00 -1.480000000E+00 -1.480000000E+00 -1.480000000E+00 -1.480000000E+00
 -1.480000000E+00 -1.480000000E+00 -1.480000000E+00 -1.480000000E+00 -1.480000000E+00
 -1.480000000E+00 -1.480000000E+00 -1.480000000E+00 -1.480000000E+00 -1.480000000E+00
 -1.480000000E+00 -1.480000000E+00 -1.480000000E+00 -1.480000000E+00 -1.480000000E+00
 -1.480000000E+00 -1.480000000E+00 -1.480000000E+00 -1.480000000E+00 -1.480000000E+00
 -1.480000000E+00 -1.480000000E+00 -1.480000000E+00 -1.480000000E+00 -1.480000000E+00
 -1.480000000E+00 -1.480000000E+00 -1.480000000E+00 -1.480000000E+00 -1.480000000E+00
 -1.480000000E+00 -1.480000000E+00 -1.480000000E+00 -1.480000000E+00 -1.480000000E+00
 -1.480000000E+00 -1.480000000E+00 -1.480000000E+00 -1.480000000E+00 -1.480000000E+00
 -1.480000000E+00 -1.480000000E+00
 3.347636329E+00 1.139868444E+01 -1.125787035E+01 1.274179110E+01 -2.566691438E+01
 1.313959496E+01 -3.784362587E+01 1.338215622E+01 -4.814098153E+01 1.379674034E+01
 -5.905696839E+01 1.430464950E+01 -6.999177399E+01 1.473047821E+01 -7.834363146E+01
 1.503874295E+01 -8.627465897E+01 1.541907846E+01 -9.428033491E+01 1.559824371E+01
 -1.120852590E+02 -1.054653600E+02 -1.026718540E+02 1.539642102E+01 -1.169592902E+02
 1.533425052E+01 -1.204307266E+02 1.571016571E+01 -1.237285944E+02 1.564895579E+01
 -1.241975172E+02 1.566097651E+01 -1.256681156E+02 1.613542492E+01 -1.287274595E+02
 1.589952059E+01 -1.338375453E+02 1.530609737E+01 -1.361449305E+02 1.513609858E+01
 -1.317655848E+02 1.515284982E+01 -1.262235457E+02 1.502425915E+01 -1.232355167E+02
 1.460353591E+01 -1.215484628E+02 1.407906627E+01 -1.206644862E+02 1.347822967E+01
 -1.214978303E+02 1.319947694E+01 -1.232690659E+02 1.333616909E+01 -1.198582304E+02
 1.333623836E+01 -1.112555665E+02 1.266547479E+01 -1.071256044E+02 9.452536635E+00
 -1.076132264E+02 2.684563575E+00 -1.075094220E+02 2.306470374E+01 -1.058283176E+02
 4.257994518E+01 -1.035479800E+02 3.564154213E+01 -1.011928384E+02 3.294448582E+01
 -9.844576935E+01 3.133154587E+01 -9.494887042E+01 2.969252382E+01 -9.259225400E+01
 2.755953569E+01 -9.177854871E+01 2.503772522E+01 -9.103833915E+01 2.228105599E+01
 -9.151880454E+01 1.980957980E+01 -9.359272921E+01 1.730546682E+01 -8.824774685E+01
 1.500058199E+01 -7.556277825E+01 1.307664468E+01 -6.852961912E+01 1.121115608E+01
 -6.722992264E+01 9.584198229E+00 -6.499817694E+01 8.100068507E+00 -6.078732314E+01
 6.672171753E+00 -5.615169494E+01 5.134177620E+00 -5.122045131E+01 3.497235210E+00
 -4.670064841E+01 1.594791077E+00 -4.095798993E+01 -6.101645921E-01 -3.459388275E+01
 -3.228556248E+00 -2.859022047E+01 -6.317374353E+00 -2.138216525E+01 -1.001428003E+01
 -1.360802356E+01 -1.440686862E+01 -5.382866388E+00 -1.974073121E+01 2.579922850E+00
 -2.623653045E+01 1.259124786E+01 -3.395159411E+01 2.350544532E+01 -4.254610977E+01
 3.479963434E+01 -5.268250945E+01 4.670226910E+01 -6.424233558E+01 5.820668076E+01
 -7.662474316E+01 6.944074223E+01 -8.942393728E+01 8.127816268E+01 -1.028866220E+02
 9.356474676E+01 -1.153441782E+02 1.066246021E+02 -1.268287156E+02 1.209181117E+02
 -1.394940610E+02 1.351864970E+02 -1.500501023E+02 1.501771214E+02 -1.610855711E+02
 1.650969258E+02 -1.708455901E+02 1.809702483E+02 -1.785085161E+02 1.953936285E+02
 -1.855915616E+02 2.084324992E+02 -1.900658892E+02 2.234190113E+02 -1.951750843E+02
 2.343882247E+02 -1.981621246E+02 2.420009552E+02 -2.013667942E+02 2.594542487E+02
 -2.043642638E+02 2.775364077E+02 -2.043448512E+02 3.004672627E+02 -2.056989200E+02
 3.212348482E+02 -2.046128914E+02 3.376887525E+02 -2.020357054E+02 3.498183783E+02
 -2.018237843E+02 3.617453358E+02 -1.992242408E+02 3.750876614E+02 -1.958357229E+02
 3.895680445E+02 -1.938745057E+02 4.043940341E+02 -1.923299577E+02 4.190223559E+02
 -1.915939649E+02 4.334732292E+02 -1.907180959E+02 4.453282552E+02 -1.900250675E+02
 4.499715480E+02 -1.898098480E+02 4.391765022E+02 -1.900996149E+02 3.936118621E+02
 -1.914417404E+02 3.109168486E+02 -1.933223407E+02 1.610142691E+02 -1.959885443E+02
 -1.946724548E+02 -1.996717377E+02 -5.135445779E+02 -2.038259432E+02 -6.771712454E+02
 -2.095984241E+02 -9.139818799E+02 -2.170369177E+02 -1.110706654E+03 -2.257112001E+02
 -1.142667708E+03 -2.360378740E+02 -1.073650056E+03 -2.480475331E+02 -9.639447394E+02
 -2.619749033E+02 -8.813013748E+02 -2.787413551E+02 -8.336483127E+02 -2.987001539E+02
 -7.773868586E+02 -3.213381361E+02 -7.236424603E+02 -3.475373150E+02 -6.754663529E+02
 -3.786552226E+02 -6.329388576E+02 -4.129651016E+02 -5.931439289E+02 -4.597009732E+02
 -5.569552485E+02 -5.146286062E+02 5.783769489E-04 5.782210506E-04 5.778076231E-04
 5.783653645E-04 5.771497667E-04 5.780602008E-04 5.763171784E-04 5.774222951E-04
 5.753212644E-04 5.764857324E-04 5.741310034E-04 5.751348626E-04 5.727178786E-04
 5.734095553E-04 5.712310447E-04 5.713964165E-04 5.694941165E-04 5.690520492E-04
 5.676525910E-04 5.663781249E-04 5.656237269E-04 5.633391197E-04 5.632628087E-04
 5.599592297E-04 5.610352980E-04 5.542093917E-04 5.562283416E-04 5.521549592E-04
 5.585313454E-04 5.477380523E-04 5.558291488E-04 5.429658382E-04 5.530767809E-04
 5.378563196E-04 5.498705256E-04 5.323775376E-04 5.469856982E-04 5.265798351E-04
 5.437507827E-04 5.204119545E-04 5.367997540E-04 5.370460714E-04 5.402128082E-04
 5.139372532E-04 5.328266108E-04 5.070725838E-04 5.293492507E-04 4.998947845E-04
 5.254643063E-04 4.935020812E-04 5.212505727E-04 4.881834864E-04 5.172182962E-04
 4.839005558E-04 5.125031582E-04 4.796585851E-04 5.083445708E-04 4.746856159E-04
 5.035170988E-04 4.699573942E-04 4.987119267E-04 4.653527936E-04 4.937358458E-04
 4.601838326E-04 4.879664882E-04 4.550081754E-04 4.825494627E-04 4.500133329E-04
 4.757699605E-04 -5.695505288E-05 -4.226994749E-05 -2.640132668E-05 4.446574807E-04
 4.702269201E-04 -7.100453514E-05 -9.349031640E-06 4.390918498E-04 4.490596372E-04
 -8.428579161E-05 7.321190071E-06 4.337283985E-04 3.286624805E-04 -9.897417946E-05
 2.417174087E-05 4.281352163E-04 2.261843732E-04 -1.119213647E-04 4.066186116E-05
 4.222217601E-04 2.229920806E-04 -1.255670547E-04 5.725248525E-05 4.165261577E-04
 2.335297305E-04 -1.403976264E-04 7.350791705E-05 4.106614353E-04 2.536357512E-04
 -1.531455494E-04 8.978472929E-05 4.044058224E-04 7.713966175E-04 -1.672426385E-04
 1.057585628E-04 3.984121334E-04 9.971942424E-04 -1.806647618E-04 1.216790294E-04
 3.922897971E-04 6.378524073E-04 -1.936956224E-04 1.373268853E-04 3.856668902E-04
 5.492458896E-04 -2.081841082E-04 1.584381929E-04 1.528540095E-04 1.681418090E-04
 3.793622711E-04 5.311932597E-04 -2.203147533E-04 1.832460960E-04 3.729986820E-04
 5.238101938E-04 -2.335297107E-04 1.981404540E-04 3.660979352E-04 5.177434458E-04
 -2.470464693E-04 2.127967509E-04 3.594271590E-04 5.113454205E-04 -2.591278562E-04
 2.273004562E-04 3.527867622E-04 5.062824673E-04 -2.728632837E-04 2.414562119E-04
 3.456671197E-04 5.018594321E-04 -2.840373716E-04 2.554574276E-04 3.385473280E-04
 4.981061750E-04 -2.961211880E-04 2.693349343E-04 3.316152904E-04 4.953580584E-04
 -3.091463513E-04 2.830171365E-04 3.243219275E-04 4.931013131E-04 -3.325345758E-04
 -3.221233106E-04 -3.199870806E-04 2.963171768E-04 3.167808036E-04 4.911167814E-04
 -3.424496572E-04 3.081421123E-04 4.894689895E-04 -3.531545484E-04 4.876198211E-04
 -3.647695346E-04 4.863928141E-04 -3.740420730E-04 4.863466517E-04 -3.848770412E-04
 4.859524366E-04 -3.930564974E-04 4.850572044E-04 -4.021271654E-04 4.846254049E-04
 -4.109178207E-04 4.834533739E-04 -4.180952503E-04 4.828947180E-04 -4.263444743E-04
 4.834111246E-04 -4.320736798E-04 4.829191896E-04 -4.389503983E-04 4.832249222E-04
 -4.423820194E-04 4.825535895E-04 -4.453378816E-04 4.820659503E-04 -3.427922646E-04
 4.831143995E-04 -2.365933634E-04 4.820145644E-04 -2.369986320E-04 4.824179735E-04
 -2.489115351E-04 4.835107846E-04 -2.707516392E-04 4.829078158E-04 -7.596229938E-04
 4.835321341E-04 -9.755654356E-04 4.825722343E-04 -6.516005675E-04 4.821656344E-04
 -5.876720117E-04 4.829305571E-04 -5.780774546E-04 4.812966938E-04 -5.724099526E-04
 4.817383356E-04 -5.734405643E-04 4.814383445E-04 -5.691856451E-04 4.806905355E-04
 -5.711502340E-04 4.798658306E-04 -5.694784400E-04 4.788673176E-04 -5.684730055E-04
 4.781985777E-04 -5.730344620E-04 4.772611609E-04 -5.699269228E-04 4.766412590E-04
 -5.752833269E-04 4.757316913E-04 -5.708143072E-04 4.752591228E-04 -5.704957188E-04
 4.745988810E-04 -5.755079483E-04 4.743724057E-04 -5.765317889E-04 4.736979435E-04
 4.738039945E-04 4.737687858E-04 -5.720059237E-04 4.740280454E-04 -5.785929429E-04
 4.755980092E-04 -5.724937136E-04 4.773225625E-04 -5.713993123E-04 4.790541564E-04
 -5.790639751E-04 4.797602404E-04 -5.725074221E-04 4.787449373E-04 -5.795223078E-04
 4.686152928E-04 -5.752583159E-04 4.622757228E-04 -5.727645531E-04 4.579723256E-04
 -5.833338200E-04 5.033015745E-04 -5.746381038E-04 5.746600355E-04 -5.813943570E-04
 5.471449203E-04 -5.843273081E-04 5.294268702E-04 -5.799426598E-04 5.618456278E-04
 -5.956875231E-04 4.861727667E-04 -5.848115133E-04 3.658290257E-04 -5.898749121E-04
 2.115595302E-04 -6.080077659E-04 1.402288646E-05 -5.996447092E-04 -1.127497858E-04
 -6.168093084E-04 -6.271656540E-04 -6.207476812E-04 -3.977705835E-04 -6.427333517E-04
 -4.490934786E-04 -6.534978282E-04 -2.763513092E-04 -6.725123964E-04 -3.193335901E-03
 -6.864247138E-04 -3.121495740E-03 -7.102660291E-04 4.300468855E-03 -7.280737572E-04
 8.138349222E-05 -7.579060150E-04 -6.885589015E-03 -7.805140365E-04 -4.015089465E-03
 -8.172557656E-04 -2.926793499E-03 -8.461925999E-04 -2.931922972E-03 -9.070258687E-04
 -8.926095930E-04 -2.946351110E-03 -9.318828580E-04 -2.949620306E-03 -9.898381124E-04
 -2.768177391E-03 -1.039339734E-03 -2.709374072E-03 -1.104435255E-03 -2.703355822E-03
 -1.169194454E-03 -2.521126354E-03 -1.252808609E-03 -2.316609566E-03 -1.342302354E-03
 -2.251112774E-03 -1.454413308E-03 -2.148594392E-03 -1.575012875E-03 -1.906078244E-03
 -1.724761582E-03 -1.825422082E-03
 2 1
 1 3
 3 5
 5 7
 7 9
 9 11
 11 13
 13 15
 15 17
 17 19
 19 23
 23 22
 22 21
 21 25
 25 27
 27 29
 29 31
 31 33
 33 35
 35 37
 37 39
 39 41
 41 43
 43 45
 45 47
 47 49
 49 51
 51 53
 53 55
 55 57
 57 59
 59 61
 61 63
 63 65
 65 67
 67 69
 69 71
 71 73
 73 75
 75 77
 77 79
 79 81
 81 83
 83 85
 85 87
 87 89
 89 91
 91 93
 93 95
 95 97
 97 99
 99 101
 101 103
 103 105
 105 107
 107 109
 109 111
 111 113
 113 115
 115 117
 117 119
 119 121
 121 123
 123 125
 125 127
 127 129
 129 131
 131 133
 133 135
 135 137
 137 139
 139 141
 141 143
 143 145
 145 147
 147 149
 149 151
 151 153
 153 155
 155 157
 157 159
 159 161
 161 163
 163 165
 165 167
 167 169
 169 171
 171 173
 173 175
 175 177
 177 179
 179 181
 181 183
 183 185
 185 187
 187 189
 189 191
 191 193
 193 195
 195 197
 197 199
 199 201
 201 203
 203 205
 205 207
 207 209
 209 211
 211 213
 213 215
 215 217
 217 219
 219 221
 221 222
 222 220
 220 218
 218 216
 216 214
 214 212
 212 210
 210 208
 208 206
 206 204
 204 202
 202 200
 200 198
 198 196
 196 194
 194 192
 192 190
 190 188
 188 186
 186 184
 184 182
 182 180
 180 178
 178 176
 176 174
 174 172
 172 170
 170 168
 168 166
 166 164
 164 162
 162 160
 160 158
 158 156
 156 154
 154 152
 152 150
 150 148
 148 146
 146 144
 144 142
 142 140
 140 138
 138 136
 136 134
 134 132
 132 130
 130 128
 128 126
 126 124
 124 122
 122 120
 120 118
 118 116
 116 114
 114 112
 112 110
 110 108
 108 106
 106 104
 104 102
 102 100
 100 98
 98 96
 96 94
 94 92
 92 90
 90 88
 88 86
 86 84
 84 82
 82 80
 80 78
 78 76
 76 74
 74 72
 72 70
 70 68
 68 66
 66 64
 64 62
 62 60
 60 58
 58 56
 56 54
 54 52
 52 50
 50 48
 48 46
 46 44
 44 42
 42 40
 40 38
 38 36
 36 34
 34 32
 32 30
 30 28
 28 26
 26 24
 24 20
 20 18
 18 16
 16 14
 14 12
 12 10
 10 8
 8 6
 6 4
 4 2
 250 248
 248 249
 249 246
 246 244
 244 242
 242 240
 240 238
 238 236
 236 234
 234 232
 232 230
 230 228
 228 226
 226 223
 223 224
 224 225
 225 227
 227 229
 229 231
 231 233
 233 235
 235 237
 237 239
 239 241
 241 243
 243 245
 245 247
 247 251
 251 253
 253 255