TITLE     = "Fluent Common Fluid Files Data"
VARIABLES = "X"
"Y"
"Static Pressure"
DATASETAUXDATA Common.DensityVar="7"
DATASETAUXDATA Common.PressureVar="15"
DATASETAUXDATA Common.TemperatureVar="17"
DATASETAUXDATA Common.TurbulentDynamicViscosityVar="12"
DATASETAUXDATA Common.TurbulentKineticEnergyVar="10"
DATASETAUXDATA Common.UVar="18"
DATASETAUXDATA Common.VectorVarsAreVelocity="True"
DATASETAUXDATA Common.ViscosityVar="11"
DATASETAUXDATA Common.VVar="19"
DATASETAUXDATA Common.WVar="20"
ZONE T="Slice: Y=-1.48"
 STRANDID=7, SOLUTIONTIME=0
 Nodes=542, Elements=542, ZONETYPE=FELineSeg
 DATAPACKING=BLOCK
 DT=(DOUBLE DOUBLE DOUBLE )
 2.539488920E+00 2.539490630E+00 2.537840056E+00 2.539491884E+00 2.536119338E+00
 2.539493149E+00 2.534402100E+00 2.539494426E+00 2.532676862E+00 2.539495196E+00
 2.530950816E+00 2.539495432E+00 2.529226401E+00 2.539495685E+00 2.527502732E+00
 2.539495954E+00 2.525773750E+00 2.539496239E+00 2.524045487E+00 2.539496541E+00
 2.520604533E+00 2.521809178E+00 2.522318042E+00 2.539496859E+00 2.518901075E+00
 2.539497290E+00 2.517187445E+00 2.539497954E+00 2.515473960E+00 2.539499068E+00
 2.513757641E+00 2.539500193E+00 2.512042153E+00 2.539501331E+00 2.510336256E+00
 2.539502481E+00 2.508629984E+00 2.539503644E+00 2.506928039E+00 2.539504815E+00
 2.505216178E+00 2.539505994E+00 2.503496960E+00 2.539507184E+00 2.501780267E+00
 2.539508386E+00 2.500065726E+00 2.539509600E+00 2.498349364E+00 2.539510545E+00
 2.496634636E+00 2.539510628E+00 2.494921250E+00 2.539510729E+00 2.493209613E+00
 2.539510848E+00 2.491477825E+00 2.539510984E+00 2.489741442E+00 2.539511138E+00
 2.488016223E+00 2.539511309E+00 2.486296220E+00 2.539510933E+00 2.484572761E+00
 2.537695485E+00 2.482838752E+00 2.535885260E+00 2.481104740E+00 2.534063549E+00
 2.479371634E+00 2.532233819E+00 2.477635556E+00 2.530398053E+00 2.475896464E+00
 2.528560134E+00 2.474155395E+00 2.526708976E+00 2.472415412E+00 2.524865147E+00
 2.470676029E+00 2.523015775E+00 2.468936150E+00 2.521159418E+00 2.467190659E+00
 2.519306027E+00 2.465418062E+00 2.517458520E+00 2.463642358E+00 2.515614204E+00
 2.461878849E+00 2.513774666E+00 2.460117421E+00 2.511945405E+00 2.458349920E+00
 2.510108712E+00 2.456578956E+00 2.508282723E+00 2.454799533E+00 2.506465142E+00
 2.453007475E+00 2.504653158E+00 2.451214949E+00 2.502846969E+00 2.449420163E+00
 2.501043711E+00 2.447627954E+00 2.499243492E+00 2.445829458E+00 2.497443655E+00
 2.444018834E+00 2.495644869E+00 2.442196989E+00 2.493846017E+00 2.440365057E+00
 2.492045452E+00 2.438531200E+00 2.490244531E+00 2.436683723E+00 2.488441339E+00
 2.434835916E+00 2.486633844E+00 2.432974724E+00 2.484826020E+00 2.431110979E+00
 2.483012915E+00 2.429237082E+00 2.481199266E+00 2.427352983E+00 2.479381085E+00
 2.425461603E+00 2.477557016E+00 2.423553260E+00 2.475733386E+00 2.421637160E+00
 2.473903383E+00 2.419707839E+00 2.472077143E+00 2.417769982E+00 2.470244275E+00
 2.415823781E+00 2.468410798E+00 2.413862784E+00 2.466580223E+00 2.411880458E+00
 2.464743738E+00 2.409888100E+00 2.462912000E+00 2.407886951E+00 2.461079699E+00
 2.406724506E+00 2.459251062E+00 2.405895647E+00 2.457420987E+00 2.403918405E+00
 2.455589554E+00 2.401921045E+00 2.453764414E+00 2.399926438E+00 2.451934385E+00
 2.397921299E+00 2.450108880E+00 2.397364602E+00 2.448287516E+00 2.396811826E+00
 2.446465533E+00 2.396260047E+00 2.444650290E+00 2.395705726E+00 2.442845206E+00
 2.395150744E+00 2.441042158E+00 2.394599044E+00 2.439242386E+00 2.394053369E+00
 2.437449498E+00 2.393515634E+00 2.435655226E+00 2.392989480E+00 2.433861302E+00
 2.392479059E+00 2.432068847E+00 2.391988689E+00 2.430280230E+00 2.391532989E+00
 2.428496960E+00 2.391136506E+00 2.426713459E+00 2.390800005E+00 2.424941002E+00
 2.390550620E+00 2.423167827E+00 2.390463314E+00 2.421400519E+00 2.390477037E+00
 2.419640258E+00 2.390571654E+00 2.417885838E+00 2.390799729E+00 2.416143645E+00
 2.391170019E+00 2.414402572E+00 2.391618421E+00 2.412677023E+00 2.392120050E+00
 2.410959844E+00 2.392683928E+00 2.409253638E+00 2.393283123E+00 2.407569003E+00
 2.393869978E+00 2.405888403E+00 2.394457459E+00 2.404231251E+00 2.395083211E+00
 2.402594609E+00 2.395754271E+00 2.400981112E+00 2.396452136E+00 2.399415178E+00
 2.397156614E+00 2.397859968E+00 -7.036664825E+01 -6.894029162E+01 -6.751315262E+01
 -7.211550460E+01 -6.604412649E+01 -7.384855605E+01 -6.454525715E+01 -7.550780473E+01
 -6.304682442E+01 -7.714527015E+01 -6.148520360E+01 -7.871043240E+01 -5.992200568E+01
 -8.024709719E+01 -5.833058652E+01 -8.171422814E+01 -5.670570140E+01 -8.314649190E+01
 -5.507980586E+01 -8.451088158E+01 -5.340480552E+01 -8.583534942E+01 -5.172322470E+01
 -8.709251465E+01 -5.002364723E+01 -8.887470345E+01 -8.830667781E+01 -8.945309681E+01
 -4.828926837E+01 -9.055382971E+01 -4.655484770E+01 -9.158588643E+01 -4.478259645E+01
 -9.257169526E+01 -4.300210608E+01 -9.348535069E+01 -4.121527243E+01 -9.435483646E+01
 -3.938381010E+01 -9.514643218E+01 -3.570563212E+01 -3.583958260E+01 -3.755984458E+01
 -9.589888167E+01 -3.384617289E+01 -9.656540704E+01 -3.197299673E+01 -9.720009207E+01
 -3.008015596E+01 -9.773865028E+01 -2.818808140E+01 -9.803045254E+01 -2.626839904E+01
 -9.831542939E+01 -2.435001374E+01 -9.854130190E+01 -2.241572493E+01 -9.876724898E+01
 -2.047447237E+01 -9.899314389E+01 -1.852401768E+01 -9.916603655E+01 -1.656689924E+01
 -9.932640808E+01 -1.460023474E+01 -9.948694384E+01 -1.263389855E+01 -9.961047711E+01
 -1.065437767E+01 -6.894494642E+01 -7.036664838E+01 -7.205204376E+01 -9.970616356E+01
 -8.680359625E+00 -6.752247578E+01 -7.372149922E+01 -9.980176676E+01 -6.691826263E+00
 -6.605879760E+01 -7.532778896E+01 -9.987306839E+01 -4.711762867E+00 -6.456483033E+01
 -7.690465340E+01 -9.990477802E+01 -2.718790464E+00 -6.307134958E+01 -7.842819516E+01
 -9.993651513E+01 -7.353545071E-01 -6.151589982E+01 -7.990826651E+01 -9.995236878E+01
 1.258292735E+00 -5.995786665E+01 -8.134540295E+01 -9.992065567E+01 3.241743657E+00
 -5.837321103E+01 -8.272497228E+01 -9.988891951E+01 5.233928302E+00 -5.675363916E+01
 -8.407203196E+01 -9.984968391E+01 7.213170066E+00 -5.513320014E+01 -8.534781282E+01
 -9.975395621E+01 9.201848109E+00 -5.346556284E+01 -8.660109498E+01 -9.965836702E+01
 1.117386875E+01 -5.178956882E+01 -8.819252528E+01 -8.777027744E+01 -8.892607277E+01
 -9.956264214E+01 1.315392759E+01 -5.009782264E+01 -8.998636463E+01 -9.940669091E+01
 1.511683236E+01 -4.836908003E+01 -9.104099856E+01 -9.924615791E+01 1.708355435E+01
 -4.664058828E+01 -9.199058870E+01 -9.908573904E+01 1.903646113E+01 -4.487652671E+01
 -9.293996040E+01 -9.887997051E+01 2.098570998E+01 -4.310198364E+01 -9.377798406E+01
 -9.865406797E+01 2.292736558E+01 -4.132367263E+01 -9.461547466E+01 -9.842805172E+01
 2.485645024E+01 -3.949807232E+01 -9.534415653E+01 -9.817594343E+01 2.677496441E+01
 -3.768046547E+01 -9.606879024E+01 -9.788396624E+01 2.868776718E+01 -3.398163904E+01
 -3.551941687E+01 -3.583486014E+01 -9.668534237E+01 -9.759211376E+01 3.057925792E+01
 -3.211723797E+01 -9.729647354E+01 3.246797572E+01 -3.023040341E+01 3.433725241E+01
 -2.834505094E+01 3.619733474E+01 -2.643397401E+01 3.637868822E+01 -2.452204724E+01
 3.804205082E+01 -2.259636295E+01 3.986552280E+01 -2.066118317E+01 4.169089530E+01
 -1.871773544E+01 4.347325679E+01 -1.676881303E+01 4.525428149E+01 -1.480873667E+01
 4.701451935E+01 -1.285043790E+01 4.874828425E+01 -1.087755374E+01 5.047993113E+01
 -8.911352941E+00 5.216938782E+01 -6.928897582E+00 5.385115329E+01 -4.956135820E+00
 5.551177711E+01 -2.970200706E+00 5.713724583E+01 -9.934911340E-01 5.876284522E+01
 9.934855881E-01 6.033821900E+01 2.970194971E+00 6.190156327E+01 4.956128941E+00
 6.344661966E+01 6.928889936E+00 6.494494716E+01 8.911347017E+00 6.644422697E+01
 1.087754939E+01 6.789515435E+01 1.285043418E+01 6.932240209E+01 1.480873341E+01
 7.074571310E+01 1.676880972E+01 7.245922916E+01 1.871773064E+01 7.417322070E+01
 2.066117777E+01 7.579605294E+01 2.259635905E+01 7.741551588E+01 2.452204364E+01
 7.894691658E+01 2.643397117E+01 8.046668361E+01 2.834504868E+01 8.190297772E+01
 3.023040021E+01 8.331950123E+01 3.211723508E+01 8.465621406E+01 3.398163818E+01
 8.596613305E+01 3.551945215E+01 8.719897315E+01 3.583485943E+01 8.895855254E+01
 8.839981565E+01 8.952544483E+01 3.768046361E+01 9.061410656E+01 3.949806964E+01
 9.162904258E+01 4.132367181E+01 9.260405346E+01 4.310198396E+01 9.350436542E+01
 4.487652682E+01 9.436433835E+01 4.664058812E+01 9.514642677E+01 4.836907976E+01
 9.589065773E+01 5.009782235E+01 9.655154314E+01 5.178957053E+01 9.717930698E+01
 5.346556451E+01 9.771608974E+01 5.513319973E+01 9.800879837E+01 5.675363737E+01
 9.829935998E+01 5.837321001E+01 9.852593648E+01 5.995786579E+01 9.875258577E+01
 6.151589876E+01 9.897918168E+01 6.307134946E+01 9.915662949E+01 6.456483088E+01
 9.931750372E+01 6.605879805E+01 9.947853574E+01 6.752247574E+01 9.960576768E+01
 6.894494651E+01 7.205120393E+01 7.036664822E+01 9.970175612E+01 7.371982128E+01
 9.979765382E+01 7.532541462E+01 9.987179982E+01 7.690148997E+01 9.990360606E+01
 7.842449004E+01 9.993544238E+01 7.990382319E+01 9.995334046E+01 8.134057623E+01
 9.992153144E+01 8.271946064E+01 9.988969649E+01 8.406629810E+01 9.985171559E+01
 8.534144639E+01 9.975568372E+01 8.659468276E+01 9.965979636E+01 8.818364215E+01
 8.776328905E+01 9.956377801E+01 8.891920998E+01 9.940809382E+01 8.997898232E+01
 9.924705975E+01 9.103391759E+01 9.908613941E+01 9.198304732E+01 9.887982798E+01
 9.293201085E+01 9.865321962E+01 9.377050691E+01 9.842649665E+01 9.460763270E+01
 9.817301599E+01 9.533697634E+01 9.788012477E+01 9.606125155E+01 9.758736121E+01
 9.667868785E+01 9.728970090E+01
 -1.480000000E+00 -1.480000000E+00 -1.480000000E+00 -1.480000000E+00 -1.480000000E+00
 -1.480000000E+00 -1.480000000E+00 -1.480000000E+00 -1.480000000E+00 -1.480000000E+00
 -1.480000000E+00 -1.480000000E+00 -1.480000000E+00 -1.480000000E+00 -1.480000000E+00
 -1.480000000E+00 -1.480000000E+00 -1.480000000E+00 -1.480000000E+00 -1.480000000E+00
 -1.480000000E+00 -1.480000000E+00 -1.480000000E+00 -1.480000000E+00 -1.480000000E+00
 -1.480000000E+00 -1.480000000E+00 -1.480000000E+00 -1.480000000E+00 -1.480000000E+00
 -1.480000000E+00 -1.480000000E+00 -1.480000000E+00 -1.480000000E+00 -1.480000000E+00
 -1.480000000E+00 -1.480000000E+00 -1.480000000E+00 -1.480000000E+00 -1.480000000E+00
 -1.480000000E+00 -1.480000000E+00 -1.480000000E+00 -1.480000000E+00 -1.480000000E+00
 -1.480000000E+00 -1.480000000E+00 -1.480000000E+00 -1.480000000E+00 -1.480000000E+00
 -1.480000000E+00 -1.480000000E+00 -1.480000000E+00 -1.480000000E+00 -1.480000000E+00
 -1.480000000E+00 -1.480000000E+00 -1.480000000E+00 -1.480000000E+00 -1.480000000E+00
 -1.480000000E+00 -1.480000000E+00 -1.480000000E+00 -1.480000000E+00 -1.480000000E+00
 -1.480000000E+00 -1.480000000E+00 -1.480000000E+00 -1.480000000E+00 -1.480000000E+00
 -1.480000000E+00 -1.480000000E+00 -1.480000000E+00 -1.480000000E+00 -1.480000000E+00
 -1.480000000E+00 -1.480000000E+00 -1.480000000E+00 -1.480000000E+00 -1.480000000E+00
 -1.480000000E+00 -1.480000000E+00 -1.480000000E+00 -1.480000000E+00 -1.480000000E+00
 -1.480000000E+00 -1.480000000E+00 -1.480000000E+00 -1.480000000E+00 -1.480000000E+00
 -1.480000000E+00 -1.480000000E+00 -1.480000000E+00 -1.480000000E+00 -1.480000000E+00
 -1.480000000E+00 -1.480000000E+00 -1.480000000E+00 -1.480000000E+00 -1.480000000E+00
 -1.480000000E+00 -1.480000000E+00 -1.480000000E+00 -1.480000000E+00 -1.480000000E+00
 -1.480000000E+00 -1.480000000E+00 -1.480000000E+00 -1.480000000E+00 -1.480000000E+00
 -1.480000000E+00 -1.480000000E+00 -1.480000000E+00 -1.480000000E+00 -1.480000000E+00
 -1.480000000E+00 -1.480000000E+00 -1.480000000E+00 -1.480000000E+00 -1.480000000E+00
 -1.480000000E+00 -1.480000000E+00 -1.480000000E+00 -1.480000000E+00 -1.480000000E+00
 -1.480000000E+00 -1.480000000E+00 -1.480000000E+00 -1.480000000E+00 -1.480000000E+00
 -1.480000000E+00 -1.480000000E+00 -1.480000000E+00 -1.480000000E+00 -1.480000000E+00
 -1.480000000E+00 -1.480000000E+00 -1.480000000E+00 -1.480000000E+00 -1.480000000E+00
 -1.480000000E+00 -1.480000000E+00 -1.480000000E+00 -1.480000000E+00 -1.480000000E+00
 -1.480000000E+00 -1.480000000E+00 -1.480000000E+00 -1.480000000E+00 -1.480000000E+00
 -1.480000000E+00 -1.480000000E+00 -1.480000000E+00 -1.480000000E+00 -1.480000000E+00
 -1.480000000E+00 -1.480000000E+00 -1.480000000E+00 -1.480000000E+00 -1.480000000E+00
 -1.480000000E+00 -1.480000000E+00 -1.480000000E+00 -1.480000000E+00 -1.480000000E+00
 -1.480000000E+00 -1.480000000E+00 -1.480000000E+00 -1.480000000E+00 -1.480000000E+00
 -1.480000000E+00 -1.480000000E+00 -1.480000000E+00 -1.480000000E+00 -1.480000000E+00
 -1.480000000E+00 -1.480000000E+00 -1.480000000E+00 -1.480000000E+00 -1.480000000E+00
 -1.480000000E+00 -1.480000000E+00 -1.480000000E+00 -1.480000000E+00 -1.480000000E+00
 -1.480000000E+00 -1.480000000E+00 -1.480000000E+00 -1.480000000E+00 -1.480000000E+00
 -1.480000000E+00 -1.480000000E+00 -1.480000000E+00 -1.480000000E+00 -1.480000000E+00
 -1.480000000E+00 -1.480000000E+00 -1.480000000E+00 -1.480000000E+00 -1.480000000E+00
 -1.480000000E+00 -1.480000000E+00 -1.480000000E+00 -1.480000000E+00 -1.480000000E+00
 -1.480000000E+00 -1.480000000E+00 -1.480000000E+00 -1.480000000E+00 -1.480000000E+00
 -1.480000000E+00 -1.480000000E+00 -1.480000000E+00 -1.480000000E+00 -1.480000000E+00
 -1.480000000E+00 -1.480000000E+00 -1.480000000E+00 -1.480000000E+00 -1.480000000E+00
 -1.480000000E+00 -1.480000000E+00 -1.480000000E+00 -1.480000000E+00 -1.480000000E+00
 -1.480000000E+00 -1.480000000E+00 -1.480000000E+00 -1.480000000E+00 -1.480000000E+00
 -1.480000000E+00 -1.480000000E+00 -1.480000000E+00 -1.480000000E+00 -1.480000000E+00
 -1.480000000E+00 -1.480000000E+00 -1.480000000E+00 -1.480000000E+00 -1.480000000E+00
 -1.480000000E+00 -1.480000000E+00 -1.480000000E+00 -1.480000000E+00 -1.480000000E+00
 -1.480000000E+00 -1.480000000E+00 -1.480000000E+00 -1.480000000E+00 -1.480000000E+00
 -1.480000000E+00 -1.480000000E+00 -1.480000000E+00 -1.480000000E+00 -1.480000000E+00
 -1.480000000E+00 -1.480000000E+00 -1.480000000E+00 -1.480000000E+00 -1.480000000E+00
 -1.480000000E+00 -1.480000000E+00 -1.480000000E+00 -1.480000000E+00 -1.480000000E+00
 -1.480000000E+00 -1.480000000E+00 -1.480000000E+00 -1.480000000E+00 -1.480000000E+00
 -1.480000000E+00 -1.480000000E+00 -1.480000000E+00 -1.480000000E+00 -1.480000000E+00
 -1.480000000E+00 -1.480000000E+00 -1.480000000E+00 -1.480000000E+00 -1.480000000E+00
 -1.480000000E+00 -1.480000000E+00 -1.480000000E+00 -1.480000000E+00 -1.480000000E+00
 -1.480000000E+00 -1.480000000E+00 -1.480000000E+00 -1.480000000E+00 -1.480000000E+00
 -1.480000000E+00 -1.480000000E+00 -1.480000000E+00 -1.480000000E+00 -1.480000000E+00
 -1.480000000E+00 -1.480000000E+00 -1.480000000E+00 -1.480000000E+00 -1.480000000E+00
 -1.480000000E+00 -1.480000000E+00 -1.480000000E+00 -1.480000000E+00 -1.480000000E+00
 -1.480000000E+00 -1.480000000E+00 -1.480000000E+00 -1.480000000E+00 -1.480000000E+00
 -1.480000000E+00 -1.480000000E+00 -1.480000000E+00 -1.480000000E+00 -1.480000000E+00
 -1.480000000E+00 -1.480000000E+00 -1.480000000E+00 -1.480000000E+00 -1.480000000E+00
 -1.480000000E+00 -1.480000000E+00 -1.480000000E+00 -1.480000000E+00 -1.480000000E+00
 -1.480000000E+00 -1.480000000E+00 -1.480000000E+00 -1.480000000E+00 -1.480000000E+00
 -1.480000000E+00 -1.480000000E+00 -1.480000000E+00 -1.480000000E+00 -1.480000000E+00
 -1.480000000E+00 -1.480000000E+00 -1.480000000E+00 -1.480000000E+00 -1.480000000E+00
 -1.480000000E+00 -1.480000000E+00 -1.480000000E+00 -1.480000000E+00 -1.480000000E+00
 -1.480000000E+00 -1.480000000E+00 -1.480000000E+00 -1.480000000E+00 -1.480000000E+00
 -1.480000000E+00 -1.480000000E+00 -1.480000000E+00 -1.480000000E+00 -1.480000000E+00
 -1.480000000E+00 -1.480000000E+00 -1.480000000E+00 -1.480000000E+00 -1.480000000E+00
 -1.480000000E+00 -1.480000000E+00 -1.480000000E+00 -1.480000000E+00 -1.480000000E+00
 -1.480000000E+00 -1.480000000E+00 -1.480000000E+00 -1.480000000E+00 -1.480000000E+00
 -1.480000000E+00 -1.480000000E+00 -1.480000000E+00 -1.480000000E+00 -1.480000000E+00
 -1.480000000E+00 -1.480000000E+00 -1.480000000E+00 -1.480000000E+00 -1.480000000E+00
 -1.480000000E+00 -1.480000000E+00 -1.480000000E+00 -1.480000000E+00 -1.480000000E+00
 -1.480000000E+00 -1.480000000E+00 -1.480000000E+00 -1.480000000E+00 -1.480000000E+00
 -1.480000000E+00 -1.480000000E+00 -1.480000000E+00 -1.480000000E+00 -1.480000000E+00
 -1.480000000E+00 -1.480000000E+00 -1.480000000E+00 -1.480000000E+00 -1.480000000E+00
 -1.480000000E+00 -1.480000000E+00 -1.480000000E+00 -1.480000000E+00 -1.480000000E+00
 -1.480000000E+00 -1.480000000E+00 -1.480000000E+00 -1.480000000E+00 -1.480000000E+00
 -1.480000000E+00 -1.480000000E+00 -1.480000000E+00 -1.480000000E+00 -1.480000000E+00
 -1.480000000E+00 -1.480000000E+00 -1.480000000E+00 -1.480000000E+00 -1.480000000E+00
 -1.480000000E+00 -1.480000000E+00 -1.480000000E+00 -1.480000000E+00 -1.480000000E+00
 -1.480000000E+00 -1.480000000E+00 -1.480000000E+00 -1.480000000E+00 -1.480000000E+00
 -1.480000000E+00 -1.480000000E+00 -1.480000000E+00 -1.480000000E+00 -1.480000000E+00
 -1.480000000E+00 -1.480000000E+00 -1.480000000E+00 -1.480000000E+00 -1.480000000E+00
 -1.480000000E+00 -1.480000000E+00 -1.480000000E+00 -1.480000000E+00 -1.480000000E+00
 -1.480000000E+00 -1.480000000E+00 -1.480000000E+00 -1.480000000E+00 -1.480000000E+00
 -1.480000000E+00 -1.480000000E+00 -1.480000000E+00 -1.480000000E+00 -1.480000000E+00
 -1.480000000E+00 -1.480000000E+00 -1.480000000E+00 -1.480000000E+00 -1.480000000E+00
 -1.480000000E+00 -1.480000000E+00 -1.480000000E+00 -1.480000000E+00 -1.480000000E+00
 -1.480000000E+00 -1.480000000E+00 -1.480000000E+00 -1.480000000E+00 -1.480000000E+00
 -1.480000000E+00 -1.480000000E+00 -1.480000000E+00 -1.480000000E+00 -1.480000000E+00
 -1.480000000E+00 -1.480000000E+00 -1.480000000E+00 -1.480000000E+00 -1.480000000E+00
 -1.480000000E+00 -1.480000000E+00 -1.480000000E+00 -1.480000000E+00 -1.480000000E+00
 -1.480000000E+00 -1.480000000E+00 -1.480000000E+00 -1.480000000E+00 -1.480000000E+00
 -1.480000000E+00 -1.480000000E+00 -1.480000000E+00 -1.480000000E+00 -1.480000000E+00
 -1.480000000E+00 -1.480000000E+00 -1.480000000E+00 -1.480000000E+00 -1.480000000E+00
 -1.480000000E+00 -1.480000000E+00 -1.480000000E+00 -1.480000000E+00 -1.480000000E+00
 -1.480000000E+00 -1.480000000E+00 -1.480000000E+00 -1.480000000E+00 -1.480000000E+00
 -1.480000000E+00 -1.480000000E+00 -1.480000000E+00 -1.480000000E+00 -1.480000000E+00
 -1.480000000E+00 -1.480000000E+00 -1.480000000E+00 -1.480000000E+00 -1.480000000E+00
 -1.480000000E+00 -1.480000000E+00 -1.480000000E+00 -1.480000000E+00 -1.480000000E+00
 -1.480000000E+00 -1.480000000E+00 -1.480000000E+00 -1.480000000E+00 -1.480000000E+00
 -1.480000000E+00 -1.480000000E+00 -1.480000000E+00 -1.480000000E+00 -1.480000000E+00
 -1.480000000E+00 -1.480000000E+00 -1.480000000E+00 -1.480000000E+00 -1.480000000E+00
 -1.480000000E+00 -1.480000000E+00
 -2.451982980E+01 -3.007657974E+01 -1.694891697E+01 -2.923711132E+01 -1.689852958E+01
 -2.858407148E+01 -2.149927652E+01 -2.813467550E+01 -2.885117515E+01 -2.794673796E+01
 -3.816906571E+01 -2.780051560E+01 -4.749797192E+01 -2.758788685E+01 -5.464286067E+01
 -2.760239211E+01 -5.924104917E+01 -2.744289037E+01 -6.162358947E+01 -2.693719592E+01
 -6.479320583E+01 -6.345658526E+01 -6.289511193E+01 -2.653137921E+01 -6.710996636E+01
 -2.646068453E+01 -7.115793400E+01 -2.634804823E+01 -7.681772236E+01 -2.593663229E+01
 -8.219414568E+01 -2.550025908E+01 -8.754726607E+01 -2.511109114E+01 -9.245983553E+01
 -2.464262618E+01 -9.725125767E+01 -2.437004706E+01 -1.003891990E+02 -2.422610863E+01
 -1.007511604E+02 -2.384627758E+01 -1.007827323E+02 -2.353303782E+01 -1.018873436E+02
 -2.360378251E+01 -1.034221719E+02 -2.410505817E+01 -1.051564115E+02 -2.478282165E+01
 -1.074798300E+02 -2.529891188E+01 -1.102764749E+02 -2.587770594E+01 -1.105195918E+02
 -2.631097439E+01 -1.080997839E+02 -2.674092470E+01 -1.082458263E+02 -3.081752890E+01
 -1.107537663E+02 -4.012131292E+01 -1.128276421E+02 -2.806113179E+01 -1.143065899E+02
 -6.901755932E+00 -1.159674179E+02 5.762290588E+00 -1.182103931E+02 2.334361995E+01
 -1.210241785E+02 3.488354710E+01 -1.241430533E+02 3.896259066E+01 -1.286007975E+02
 3.540517637E+01 -1.346739258E+02 2.773752489E+01 -1.409220044E+02 2.134930354E+01
 -1.482215803E+02 1.606633121E+01 -1.570520846E+02 1.365437586E+01 -1.607819593E+02
 1.335786954E+01 -1.597324287E+02 1.371994266E+01 -1.626677587E+02 1.485619849E+01
 -1.690504244E+02 1.490062581E+01 -1.745179058E+02 1.448197797E+01 -1.788065113E+02
 1.259168292E+01 -1.830535756E+02 8.845422159E+00 -1.870036427E+02 4.099938370E+00
 -1.910584510E+02 -2.231571778E+00 -1.939541641E+02 -9.664768272E+00 -1.962586566E+02
 -1.856417271E+01 -1.986522028E+02 -2.813088170E+01 -1.999287739E+02 -3.758177330E+01
 -2.007975364E+02 -4.620650124E+01 -2.014150432E+02 -5.340276103E+01 -2.025280464E+02
 -5.973565384E+01 -2.023057064E+02 -6.679123266E+01 -2.019203490E+02 -7.339557572E+01
 -2.018354439E+02 -8.144390306E+01 -2.019545771E+02 -9.023229409E+01 -2.029869825E+02
 -9.823549762E+01 -2.048455129E+02 -1.047794794E+02 -2.067832677E+02 -1.102576517E+02
 -2.089153779E+02 -1.142480630E+02 -2.107896676E+02 -1.169118614E+02 -2.122086103E+02
 -1.207148465E+02 -2.145868916E+02 -1.211978434E+02 -2.171009145E+02 -1.231594795E+02
 -2.207079714E+02 -1.241290379E+02 -2.249649383E+02 -1.233149839E+02 -2.330039785E+02
 -1.235466442E+02 -2.449648579E+02 -1.218073075E+02 -2.585043573E+02 -1.207311357E+02
 -2.665826253E+02 -1.170323763E+02 -2.725888096E+02 -1.144843101E+02 -2.956502768E+02
 -1.122188946E+02 -3.308774255E+02 -1.069132511E+02 -3.918594316E+02 -1.034185624E+02
 -4.490546283E+02 -9.760935502E+01 -4.617495894E+02 -9.025058138E+01 -4.678565275E+02
 -8.547087462E+01 -4.793584526E+02 -7.839121774E+01 -4.926437706E+02 -7.064648125E+01
 -5.072337568E+02 -6.448167954E+01 -5.232968803E+02 -5.851572349E+01 -5.420857578E+02
 -5.319388172E+01 -5.588661739E+02 -4.761995837E+01 -5.738919988E+02 -4.196589487E+01
 -5.974292734E+02 -3.639713696E+01 -6.192224291E+02 -3.085826076E+01 -5.923368474E+02
 -2.584658368E+01 -5.369018077E+02 -2.088582913E+01 -4.849820240E+02 -1.630110528E+01
 -2.892260845E+02 -1.215191990E+01 -4.939953821E+01 -7.582145832E+00 8.971425458E+01
 -3.498353907E+00 2.087982220E+02 2.985723001E-01 2.763938451E+02 4.374670342E+00
 2.840765574E+02 8.418634652E+00 2.661122475E+02 1.274777987E+01 2.364189110E+02
 1.754445254E+01 2.027332732E+02 2.246061419E+01 1.819411078E+02 2.756206750E+01
 1.743290989E+02 3.369027588E+01 1.597604666E+02 4.074824906E+01 1.383413269E+02
 4.895178015E+01 1.234958541E+02 6.433515385E+01 1.168537105E+02 8.002945387E+01
 1.105116671E+02 9.528658823E+01 5.029494637E-03 5.201046414E-03 5.365942470E-03
 4.842315358E-03 5.525860051E-03 4.641589873E-03 5.701697612E-03 4.443600170E-03
 5.861940153E-03 4.245327472E-03 6.031349519E-03 4.049061847E-03 6.214018091E-03
 3.852274394E-03 6.379345299E-03 3.656664439E-03 6.560037618E-03 3.460212193E-03
 6.734660472E-03 3.264236065E-03 6.908680383E-03 3.067193547E-03 7.097805883E-03
 2.869969061E-03 7.266437421E-03 2.572805326E-03 2.671495624E-03 2.472320966E-03
 7.448612489E-03 2.271838711E-03 7.631894125E-03 2.070173669E-03 7.805280967E-03
 1.867109394E-03 7.995583684E-03 1.662535729E-03 8.162576606E-03 1.456580197E-03
 8.340793423E-03 1.248527296E-03 8.690444869E-03 8.678457349E-03 8.524518110E-03
 1.039553038E-03 8.872085033E-03 8.279568526E-04 9.029477455E-03 6.152856134E-04
 9.196845149E-03 4.244528911E-04 9.366258268E-03 2.772186158E-04 9.517516246E-03
 1.648040375E-04 9.682245225E-03 4.609675767E-05 9.822172291E-03 -8.271646708E-05
 9.972268934E-03 -1.979574943E-04 1.011096474E-02 -3.161970474E-04 1.024052510E-02
 -4.449144206E-04 1.037765917E-02 -5.649112969E-04 1.048992947E-02 -6.825971988E-04
 1.061093076E-02 -8.611966666E-03 -8.449076156E-03 -8.270738895E-03 -8.100584560E-04
 1.070751586E-02 -8.763457072E-03 -8.072058033E-03 -9.348322338E-04 1.080761498E-02
 -8.898080643E-03 -7.873906684E-03 -1.052228297E-03 1.089428679E-02 -9.051091993E-03
 -7.667241758E-03 -1.178871375E-03 1.096782084E-02 -9.173502738E-03 -7.461560336E-03
 -1.307544255E-03 1.104012579E-02 -9.302902081E-03 -7.248688588E-03 -1.424864028E-03
 1.108732977E-02 -9.446751759E-03 -7.036920146E-03 -1.551285603E-03 1.113245654E-02
 -9.555845014E-03 -6.819308933E-03 -1.683635450E-03 1.115026020E-02 -9.681031411E-03
 -6.602738403E-03 -1.800529190E-03 1.116828979E-02 -9.793375563E-03 -6.381662320E-03
 -1.926386904E-03 1.118754258E-02 -9.896371325E-03 -6.161467614E-03 -2.063293223E-03
 1.084157871E-02 -1.001629337E-02 -5.856622084E-03 -5.938023188E-03 -5.715169949E-03
 -2.180577165E-03 8.069555783E-03 -1.010085849E-02 -5.490268796E-03 -2.305059734E-03
 5.620349545E-03 -1.019717185E-02 -5.265619170E-03 -2.443734344E-03 5.567839257E-03
 -1.029455473E-02 -5.040304704E-03 -2.565985298E-03 5.849974476E-03 -1.036897280E-02
 -4.814102202E-03 -2.688833252E-03 6.309354126E-03 -1.046077408E-02 -4.589128131E-03
 -2.824658715E-03 1.846174610E-02 -1.051701576E-02 -4.362625600E-03 -2.953541894E-03
 2.415518643E-02 -1.058067254E-02 -4.137768758E-03 -3.074354238E-03 1.611777521E-02
 -1.065147513E-02 -3.912021591E-03 -3.207342541E-03 1.409679873E-02 -1.074361801E-02
 -1.069914047E-02 -1.069001189E-02 -3.687126716E-03 -3.344185425E-03 1.375944814E-02
 -1.076070796E-02 -3.487627296E-03 1.357124488E-02 -1.078630480E-02 1.348906031E-02
 -1.080529467E-02 1.342056784E-02 -1.079051820E-02 1.340951392E-02 -1.068325984E-02
 1.330819235E-02 -8.046318663E-03 1.332233789E-02 -5.519438339E-03 1.321320624E-02
 -5.494268829E-03 1.320290759E-02 -5.820067052E-03 1.320976066E-02 -6.401986937E-03
 1.314726162E-02 -1.823100225E-02 1.320906851E-02 -2.349729942E-02 1.310871685E-02
 -1.548055601E-02 1.309889967E-02 -1.363175647E-02 1.315059809E-02 -1.333242211E-02
 1.306538132E-02 -1.321821657E-02 1.311980995E-02 -1.317549576E-02 1.302802516E-02
 -1.307697473E-02 1.298603914E-02 -1.305468538E-02 1.306746596E-02 -1.299726228E-02
 1.293848074E-02 -1.301771924E-02 1.295827792E-02 -1.298397827E-02 1.293075840E-02
 -1.298867712E-02 1.284203965E-02 -1.305115504E-02 1.294446561E-02 -1.303607239E-02
 1.280400222E-02 -1.311256279E-02 1.279419282E-02 -1.309178018E-02 1.278412752E-02
 -1.316882738E-02 1.282299552E-02 -1.317767550E-02 1.289692339E-02 -1.319830914E-02
 1.296464976E-02 -1.331216172E-02 1.307337745E-02 -1.329121103E-02 1.319155858E-02
 -1.341523591E-02 1.335327225E-02 -1.337197255E-02 1.354103298E-02 -1.340907152E-02
 1.378062912E-02 -1.352951284E-02 1.403662700E-02 -1.355418833E-02 1.449988391E-02
 1.433928100E-02 1.466208147E-02 -1.351307102E-02 1.501846098E-02 -1.366369879E-02
 1.539750666E-02 -1.359577404E-02 1.579111824E-02 -1.362879533E-02 1.622014071E-02
 -1.381062078E-02 1.664423959E-02 -1.373520726E-02 1.713882569E-02 -1.389756168E-02
 1.761427097E-02 -1.386319763E-02 1.824267273E-02 -1.387388172E-02 1.880684141E-02
 -1.411089774E-02 1.963083479E-02 -1.399268202E-02 2.095637684E-02 -1.414713409E-02
 2.051081669E-02 -1.423220172E-02 2.101477097E-02 -1.419041238E-02 2.300402740E-02
 -1.451183505E-02 2.280871681E-02 -1.433930469E-02 2.311011579E-02 -1.445503561E-02
 2.519921866E-02 -1.481300151E-02 2.587006243E-02 -1.469167665E-02 2.595129714E-02
 -1.504762693E-02 -1.532688875E-02 -1.515368147E-02 2.810845353E-02 -1.567930590E-02
 2.989734507E-02 -1.596085846E-02 2.953402894E-02 -1.641600914E-02 3.135711952E-02
 -1.678700491E-02 3.399179661E-02 -1.737141955E-02 3.324926036E-02 -1.783906823E-02
 3.437374991E-02 -1.858189904E-02 3.497857231E-02 -1.920049762E-02 2.885833067E-02
 -2.019896256E-02 2.240710286E-02 -2.107148972E-02 2.395178765E-02 -2.283641427E-02
 -2.241469609E-02 4.494516589E-02 -2.356667281E-02 7.067423127E-02 -2.529375503E-02
 6.091174784E-02 -2.684667900E-02 1.138806926E-02 -2.901102212E-02 -7.149112461E-02
 -3.106069313E-02 -1.343763811E-01 -3.344826272E-02 -9.555369910E-02 -3.529836777E-02
 -1.042921386E-02 -3.772049680E-02 1.589940102E-02 -4.102855980E-02 -5.092669349E-03
 -4.098931364E-02 -2.936736499E-02
 2 1
 1 3
 3 5
 5 7
 7 9
 9 11
 11 13
 13 15
 15 17
 17 19
 19 23
 23 22
 22 21
 21 25
 25 27
 27 29
 29 31
 31 33
 33 35
 35 37
 37 39
 39 41
 41 43
 43 45
 45 47
 47 49
 49 51
 51 53
 53 55
 55 57
 57 59
 59 61
 61 63
 63 65
 65 67
 67 69
 69 71
 71 73
 73 75
 75 77
 77 79
 79 81
 81 83
 83 85
 85 87
 87 89
 89 91
 91 93
 93 95
 95 97
 97 99
 99 101
 101 103
 103 105
 105 107
 107 109
 109 111
 111 113
 113 115
 115 117
 117 119
 119 121
 121 123
 123 125
 125 127
 127 129
 129 131
 131 133
 133 135
 135 137
 137 139
 139 141
 141 143
 143 145
 145 147
 147 149
 149 151
 151 153
 153 155
 155 157
 157 159
 159 161
 161 163
 163 165
 165 167
 167 169
 169 171
 171 173
 173 175
 175 177
 177 179
 179 181
 181 183
 183 185
 185 187
 187 189
 189 191
 191 193
 193 195
 195 197
 197 199
 199 201
 201 203
 203 205
 205 207
 207 209
 209 211
 211 213
 213 215
 215 217
 217 219
 219 221
 221 222
 222 220
 220 218
 218 216
 216 214
 214 212
 212 210
 210 208
 208 206
 206 204
 204 202
 202 200
 200 198
 198 196
 196 194
 194 192
 192 190
 190 188
 188 186
 186 184
 184 182
 182 180
 180 178
 178 176
 176 174
 174 172
 172 170
 170 168
 168 166
 166 164
 164 162
 162 160
 160 158
 158 156
 156 154
 154 152
 152 150
 150 148
 148 146
 146 144
 144 142
 142 140
 140 138
 138 136
 136 134
 134 132
 132 130
 130 128
 128 126
 126 124
 124 122
 122 120
 120 118
 118 116
 116 114
 114 112
 112 110
 110 108
 108 106
 106 104
 104 102
 102 100
 100 98
 98 96
 96 94
 94 92
 92 90
 90 88
 88 86
 86 84
 84 82
 82 80
 80 78
 78 76
 76 74
 74 72
 72 70
 70 68
 68 66
 66 64
 64 62
 62 60
 60 58
 58 56
 56 54
 54 52
 52 50
 50 48
 48 46
 46 44
 44 42
 42 40
 40 38
 38 36
 36 34
 34 32
 32 30
 30 28
 28 26
 26 24
 24 20
 20 18
 18 16
 16 14
 14 12
 12 10
 10 8
 8 6
 6 4
 4 2
 250 248
 248 249
 249 246
 246 244
 244 242
 242 240
 240 238
 238 236
 236 234
 234 232
 232 230
 230 228
 228 226
 226 223
 223 224
 224 225
 225 227
 227 229
 229 231
 231 233
 233 235