TITLE     = "Fluent Common Fluid Files Data"
VARIABLES = "X"
"Y"
"Static Pressure"
DATASETAUXDATA Common.DensityVar="7"
DATASETAUXDATA Common.PressureVar="15"
DATASETAUXDATA Common.TemperatureVar="17"
DATASETAUXDATA Common.TurbulentDynamicViscosityVar="12"
DATASETAUXDATA Common.TurbulentKineticEnergyVar="10"
DATASETAUXDATA Common.UVar="18"
DATASETAUXDATA Common.VectorVarsAreVelocity="True"
DATASETAUXDATA Common.ViscosityVar="11"
DATASETAUXDATA Common.VVar="19"
DATASETAUXDATA Common.WVar="20"
ZONE T="Slice: Y=-1.48"
 STRANDID=7, SOLUTIONTIME=0
 Nodes=542, Elements=542, ZONETYPE=FELineSeg
 DATAPACKING=BLOCK
 DT=(DOUBLE DOUBLE DOUBLE )
 2.539488920E+00 2.539490630E+00 2.537840056E+00 2.539491884E+00 2.536119338E+00
 2.539493149E+00 2.534402100E+00 2.539494426E+00 2.532676862E+00 2.539495196E+00
 2.530950816E+00 2.539495432E+00 2.529226401E+00 2.539495685E+00 2.527502732E+00
 2.539495954E+00 2.525773750E+00 2.539496239E+00 2.524045487E+00 2.539496541E+00
 2.520604533E+00 2.521809178E+00 2.522318042E+00 2.539496859E+00 2.518901075E+00
 2.539497290E+00 2.517187445E+00 2.539497954E+00 2.515473960E+00 2.539499068E+00
 2.513757641E+00 2.539500193E+00 2.512042153E+00 2.539501331E+00 2.510336256E+00
 2.539502481E+00 2.508629984E+00 2.539503644E+00 2.506928039E+00 2.539504815E+00
 2.505216178E+00 2.539505994E+00 2.503496960E+00 2.539507184E+00 2.501780267E+00
 2.539508386E+00 2.500065726E+00 2.539509600E+00 2.498349364E+00 2.539510545E+00
 2.496634636E+00 2.539510628E+00 2.494921250E+00 2.539510729E+00 2.493209613E+00
 2.539510848E+00 2.491477825E+00 2.539510984E+00 2.489741442E+00 2.539511138E+00
 2.488016223E+00 2.539511309E+00 2.486296220E+00 2.539510933E+00 2.484572761E+00
 2.537695485E+00 2.482838752E+00 2.535885260E+00 2.481104740E+00 2.534063549E+00
 2.479371634E+00 2.532233819E+00 2.477635556E+00 2.530398053E+00 2.475896464E+00
 2.528560134E+00 2.474155395E+00 2.526708976E+00 2.472415412E+00 2.524865147E+00
 2.470676029E+00 2.523015775E+00 2.468936150E+00 2.521159418E+00 2.467190659E+00
 2.519306027E+00 2.465418062E+00 2.517458520E+00 2.463642358E+00 2.515614204E+00
 2.461878849E+00 2.513774666E+00 2.460117421E+00 2.511945405E+00 2.458349920E+00
 2.510108712E+00 2.456578956E+00 2.508282723E+00 2.454799533E+00 2.506465142E+00
 2.453007475E+00 2.504653158E+00 2.451214949E+00 2.502846969E+00 2.449420163E+00
 2.501043711E+00 2.447627954E+00 2.499243492E+00 2.445829458E+00 2.497443655E+00
 2.444018834E+00 2.495644869E+00 2.442196989E+00 2.493846017E+00 2.440365057E+00
 2.492045452E+00 2.438531200E+00 2.490244531E+00 2.436683723E+00 2.488441339E+00
 2.434835916E+00 2.486633844E+00 2.432974724E+00 2.484826020E+00 2.431110979E+00
 2.483012915E+00 2.429237082E+00 2.481199266E+00 2.427352983E+00 2.479381085E+00
 2.425461603E+00 2.477557016E+00 2.423553260E+00 2.475733386E+00 2.421637160E+00
 2.473903383E+00 2.419707839E+00 2.472077143E+00 2.417769982E+00 2.470244275E+00
 2.415823781E+00 2.468410798E+00 2.413862784E+00 2.466580223E+00 2.411880458E+00
 2.464743738E+00 2.409888100E+00 2.462912000E+00 2.407886951E+00 2.461079699E+00
 2.406724506E+00 2.459251062E+00 2.405895647E+00 2.457420987E+00 2.403918405E+00
 2.455589554E+00 2.401921045E+00 2.453764414E+00 2.399926438E+00 2.451934385E+00
 2.397921299E+00 2.450108880E+00 2.397364602E+00 2.448287516E+00 2.396811826E+00
 2.446465533E+00 2.396260047E+00 2.444650290E+00 2.395705726E+00 2.442845206E+00
 2.395150744E+00 2.441042158E+00 2.394599044E+00 2.439242386E+00 2.394053369E+00
 2.437449498E+00 2.393515634E+00 2.435655226E+00 2.392989480E+00 2.433861302E+00
 2.392479059E+00 2.432068847E+00 2.391988689E+00 2.430280230E+00 2.391532989E+00
 2.428496960E+00 2.391136506E+00 2.426713459E+00 2.390800005E+00 2.424941002E+00
 2.390550620E+00 2.423167827E+00 2.390463314E+00 2.421400519E+00 2.390477037E+00
 2.419640258E+00 2.390571654E+00 2.417885838E+00 2.390799729E+00 2.416143645E+00
 2.391170019E+00 2.414402572E+00 2.391618421E+00 2.412677023E+00 2.392120050E+00
 2.410959844E+00 2.392683928E+00 2.409253638E+00 2.393283123E+00 2.407569003E+00
 2.393869978E+00 2.405888403E+00 2.394457459E+00 2.404231251E+00 2.395083211E+00
 2.402594609E+00 2.395754271E+00 2.400981112E+00 2.396452136E+00 2.399415178E+00
 2.397156614E+00 2.397859968E+00 -7.036664825E+01 -6.894029162E+01 -6.751315262E+01
 -7.211550460E+01 -6.604412649E+01 -7.384855605E+01 -6.454525715E+01 -7.550780473E+01
 -6.304682442E+01 -7.714527015E+01 -6.148520360E+01 -7.871043240E+01 -5.992200568E+01
 -8.024709719E+01 -5.833058652E+01 -8.171422814E+01 -5.670570140E+01 -8.314649190E+01
 -5.507980586E+01 -8.451088158E+01 -5.340480552E+01 -8.583534942E+01 -5.172322470E+01
 -8.709251465E+01 -5.002364723E+01 -8.887470345E+01 -8.830667781E+01 -8.945309681E+01
 -4.828926837E+01 -9.055382971E+01 -4.655484770E+01 -9.158588643E+01 -4.478259645E+01
 -9.257169526E+01 -4.300210608E+01 -9.348535069E+01 -4.121527243E+01 -9.435483646E+01
 -3.938381010E+01 -9.514643218E+01 -3.570563212E+01 -3.583958260E+01 -3.755984458E+01
 -9.589888167E+01 -3.384617289E+01 -9.656540704E+01 -3.197299673E+01 -9.720009207E+01
 -3.008015596E+01 -9.773865028E+01 -2.818808140E+01 -9.803045254E+01 -2.626839904E+01
 -9.831542939E+01 -2.435001374E+01 -9.854130190E+01 -2.241572493E+01 -9.876724898E+01
 -2.047447237E+01 -9.899314389E+01 -1.852401768E+01 -9.916603655E+01 -1.656689924E+01
 -9.932640808E+01 -1.460023474E+01 -9.948694384E+01 -1.263389855E+01 -9.961047711E+01
 -1.065437767E+01 -6.894494642E+01 -7.036664838E+01 -7.205204376E+01 -9.970616356E+01
 -8.680359625E+00 -6.752247578E+01 -7.372149922E+01 -9.980176676E+01 -6.691826263E+00
 -6.605879760E+01 -7.532778896E+01 -9.987306839E+01 -4.711762867E+00 -6.456483033E+01
 -7.690465340E+01 -9.990477802E+01 -2.718790464E+00 -6.307134958E+01 -7.842819516E+01
 -9.993651513E+01 -7.353545071E-01 -6.151589982E+01 -7.990826651E+01 -9.995236878E+01
 1.258292735E+00 -5.995786665E+01 -8.134540295E+01 -9.992065567E+01 3.241743657E+00
 -5.837321103E+01 -8.272497228E+01 -9.988891951E+01 5.233928302E+00 -5.675363916E+01
 -8.407203196E+01 -9.984968391E+01 7.213170066E+00 -5.513320014E+01 -8.534781282E+01
 -9.975395621E+01 9.201848109E+00 -5.346556284E+01 -8.660109498E+01 -9.965836702E+01
 1.117386875E+01 -5.178956882E+01 -8.819252528E+01 -8.777027744E+01 -8.892607277E+01
 -9.956264214E+01 1.315392759E+01 -5.009782264E+01 -8.998636463E+01 -9.940669091E+01
 1.511683236E+01 -4.836908003E+01 -9.104099856E+01 -9.924615791E+01 1.708355435E+01
 -4.664058828E+01 -9.199058870E+01 -9.908573904E+01 1.903646113E+01 -4.487652671E+01
 -9.293996040E+01 -9.887997051E+01 2.098570998E+01 -4.310198364E+01 -9.377798406E+01
 -9.865406797E+01 2.292736558E+01 -4.132367263E+01 -9.461547466E+01 -9.842805172E+01
 2.485645024E+01 -3.949807232E+01 -9.534415653E+01 -9.817594343E+01 2.677496441E+01
 -3.768046547E+01 -9.606879024E+01 -9.788396624E+01 2.868776718E+01 -3.398163904E+01
 -3.551941687E+01 -3.583486014E+01 -9.668534237E+01 -9.759211376E+01 3.057925792E+01
 -3.211723797E+01 -9.729647354E+01 3.246797572E+01 -3.023040341E+01 3.433725241E+01
 -2.834505094E+01 3.619733474E+01 -2.643397401E+01 3.637868822E+01 -2.452204724E+01
 3.804205082E+01 -2.259636295E+01 3.986552280E+01 -2.066118317E+01 4.169089530E+01
 -1.871773544E+01 4.347325679E+01 -1.676881303E+01 4.525428149E+01 -1.480873667E+01
 4.701451935E+01 -1.285043790E+01 4.874828425E+01 -1.087755374E+01 5.047993113E+01
 -8.911352941E+00 5.216938782E+01 -6.928897582E+00 5.385115329E+01 -4.956135820E+00
 5.551177711E+01 -2.970200706E+00 5.713724583E+01 -9.934911340E-01 5.876284522E+01
 9.934855881E-01 6.033821900E+01 2.970194971E+00 6.190156327E+01 4.956128941E+00
 6.344661966E+01 6.928889936E+00 6.494494716E+01 8.911347017E+00 6.644422697E+01
 1.087754939E+01 6.789515435E+01 1.285043418E+01 6.932240209E+01 1.480873341E+01
 7.074571310E+01 1.676880972E+01 7.245922916E+01 1.871773064E+01 7.417322070E+01
 2.066117777E+01 7.579605294E+01 2.259635905E+01 7.741551588E+01 2.452204364E+01
 7.894691658E+01 2.643397117E+01 8.046668361E+01 2.834504868E+01 8.190297772E+01
 3.023040021E+01 8.331950123E+01 3.211723508E+01 8.465621406E+01 3.398163818E+01
 8.596613305E+01 3.551945215E+01 8.719897315E+01 3.583485943E+01 8.895855254E+01
 8.839981565E+01 8.952544483E+01 3.768046361E+01 9.061410656E+01 3.949806964E+01
 9.162904258E+01 4.132367181E+01 9.260405346E+01 4.310198396E+01 9.350436542E+01
 4.487652682E+01 9.436433835E+01 4.664058812E+01 9.514642677E+01 4.836907976E+01
 9.589065773E+01 5.009782235E+01 9.655154314E+01 5.178957053E+01 9.717930698E+01
 5.346556451E+01 9.771608974E+01 5.513319973E+01 9.800879837E+01 5.675363737E+01
 9.829935998E+01 5.837321001E+01 9.852593648E+01 5.995786579E+01 9.875258577E+01
 6.151589876E+01 9.897918168E+01 6.307134946E+01 9.915662949E+01 6.456483088E+01
 9.931750372E+01 6.605879805E+01 9.947853574E+01 6.752247574E+01 9.960576768E+01
 6.894494651E+01 7.205120393E+01 7.036664822E+01 9.970175612E+01 7.371982128E+01
 9.979765382E+01 7.532541462E+01 9.987179982E+01 7.690148997E+01 9.990360606E+01
 7.842449004E+01 9.993544238E+01 7.990382319E+01 9.995334046E+01 8.134057623E+01
 9.992153144E+01 8.271946064E+01 9.988969649E+01 8.406629810E+01 9.985171559E+01
 8.534144639E+01 9.975568372E+01 8.659468276E+01 9.965979636E+01 8.818364215E+01
 8.776328905E+01 9.956377801E+01 8.891920998E+01 9.940809382E+01 8.997898232E+01
 9.924705975E+01 9.103391759E+01 9.908613941E+01 9.198304732E+01 9.887982798E+01
 9.293201085E+01 9.865321962E+01 9.377050691E+01 9.842649665E+01 9.460763270E+01
 9.817301599E+01 9.533697634E+01 9.788012477E+01 9.606125155E+01 9.758736121E+01
 9.667868785E+01 9.728970090E+01
 -1.480000000E+00 -1.480000000E+00 -1.480000000E+00 -1.480000000E+00 -1.480000000E+00
 -1.480000000E+00 -1.480000000E+00 -1.480000000E+00 -1.480000000E+00 -1.480000000E+00
 -1.480000000E+00 -1.480000000E+00 -1.480000000E+00 -1.480000000E+00 -1.480000000E+00
 -1.480000000E+00 -1.480000000E+00 -1.480000000E+00 -1.480000000E+00 -1.480000000E+00
 -1.480000000E+00 -1.480000000E+00 -1.480000000E+00 -1.480000000E+00 -1.480000000E+00
 -1.480000000E+00 -1.480000000E+00 -1.480000000E+00 -1.480000000E+00 -1.480000000E+00
 -1.480000000E+00 -1.480000000E+00 -1.480000000E+00 -1.480000000E+00 -1.480000000E+00
 -1.480000000E+00 -1.480000000E+00 -1.480000000E+00 -1.480000000E+00 -1.480000000E+00
 -1.480000000E+00 -1.480000000E+00 -1.480000000E+00 -1.480000000E+00 -1.480000000E+00
 -1.480000000E+00 -1.480000000E+00 -1.480000000E+00 -1.480000000E+00 -1.480000000E+00
 -1.480000000E+00 -1.480000000E+00 -1.480000000E+00 -1.480000000E+00 -1.480000000E+00
 -1.480000000E+00 -1.480000000E+00 -1.480000000E+00 -1.480000000E+00 -1.480000000E+00
 -1.480000000E+00 -1.480000000E+00 -1.480000000E+00 -1.480000000E+00 -1.480000000E+00
 -1.480000000E+00 -1.480000000E+00 -1.480000000E+00 -1.480000000E+00 -1.480000000E+00
 -1.480000000E+00 -1.480000000E+00 -1.480000000E+00 -1.480000000E+00 -1.480000000E+00
 -1.480000000E+00 -1.480000000E+00 -1.480000000E+00 -1.480000000E+00 -1.480000000E+00
 -1.480000000E+00 -1.480000000E+00 -1.480000000E+00 -1.480000000E+00 -1.480000000E+00
 -1.480000000E+00 -1.480000000E+00 -1.480000000E+00 -1.480000000E+00 -1.480000000E+00
 -1.480000000E+00 -1.480000000E+00 -1.480000000E+00 -1.480000000E+00 -1.480000000E+00
 -1.480000000E+00 -1.480000000E+00 -1.480000000E+00 -1.480000000E+00 -1.480000000E+00
 -1.480000000E+00 -1.480000000E+00 -1.480000000E+00 -1.480000000E+00 -1.480000000E+00
 -1.480000000E+00 -1.480000000E+00 -1.480000000E+00 -1.480000000E+00 -1.480000000E+00
 -1.480000000E+00 -1.480000000E+00 -1.480000000E+00 -1.480000000E+00 -1.480000000E+00
 -1.480000000E+00 -1.480000000E+00 -1.480000000E+00 -1.480000000E+00 -1.480000000E+00
 -1.480000000E+00 -1.480000000E+00 -1.480000000E+00 -1.480000000E+00 -1.480000000E+00
 -1.480000000E+00 -1.480000000E+00 -1.480000000E+00 -1.480000000E+00 -1.480000000E+00
 -1.480000000E+00 -1.480000000E+00 -1.480000000E+00 -1.480000000E+00 -1.480000000E+00
 -1.480000000E+00 -1.480000000E+00 -1.480000000E+00 -1.480000000E+00 -1.480000000E+00
 -1.480000000E+00 -1.480000000E+00 -1.480000000E+00 -1.480000000E+00 -1.480000000E+00
 -1.480000000E+00 -1.480000000E+00 -1.480000000E+00 -1.480000000E+00 -1.480000000E+00
 -1.480000000E+00 -1.480000000E+00 -1.480000000E+00 -1.480000000E+00 -1.480000000E+00
 -1.480000000E+00 -1.480000000E+00 -1.480000000E+00 -1.480000000E+00 -1.480000000E+00
 -1.480000000E+00 -1.480000000E+00 -1.480000000E+00 -1.480000000E+00 -1.480000000E+00
 -1.480000000E+00 -1.480000000E+00 -1.480000000E+00 -1.480000000E+00 -1.480000000E+00
 -1.480000000E+00 -1.480000000E+00 -1.480000000E+00 -1.480000000E+00 -1.480000000E+00
 -1.480000000E+00 -1.480000000E+00 -1.480000000E+00 -1.480000000E+00 -1.480000000E+00
 -1.480000000E+00 -1.480000000E+00 -1.480000000E+00 -1.480000000E+00 -1.480000000E+00
 -1.480000000E+00 -1.480000000E+00 -1.480000000E+00 -1.480000000E+00 -1.480000000E+00
 -1.480000000E+00 -1.480000000E+00 -1.480000000E+00 -1.480000000E+00 -1.480000000E+00
 -1.480000000E+00 -1.480000000E+00 -1.480000000E+00 -1.480000000E+00 -1.480000000E+00
 -1.480000000E+00 -1.480000000E+00 -1.480000000E+00 -1.480000000E+00 -1.480000000E+00
 -1.480000000E+00 -1.480000000E+00 -1.480000000E+00 -1.480000000E+00 -1.480000000E+00
 -1.480000000E+00 -1.480000000E+00 -1.480000000E+00 -1.480000000E+00 -1.480000000E+00
 -1.480000000E+00 -1.480000000E+00 -1.480000000E+00 -1.480000000E+00 -1.480000000E+00
 -1.480000000E+00 -1.480000000E+00 -1.480000000E+00 -1.480000000E+00 -1.480000000E+00
 -1.480000000E+00 -1.480000000E+00 -1.480000000E+00 -1.480000000E+00 -1.480000000E+00
 -1.480000000E+00 -1.480000000E+00 -1.480000000E+00 -1.480000000E+00 -1.480000000E+00
 -1.480000000E+00 -1.480000000E+00 -1.480000000E+00 -1.480000000E+00 -1.480000000E+00
 -1.480000000E+00 -1.480000000E+00 -1.480000000E+00 -1.480000000E+00 -1.480000000E+00
 -1.480000000E+00 -1.480000000E+00 -1.480000000E+00 -1.480000000E+00 -1.480000000E+00
 -1.480000000E+00 -1.480000000E+00 -1.480000000E+00 -1.480000000E+00 -1.480000000E+00
 -1.480000000E+00 -1.480000000E+00 -1.480000000E+00 -1.480000000E+00 -1.480000000E+00
 -1.480000000E+00 -1.480000000E+00 -1.480000000E+00 -1.480000000E+00 -1.480000000E+00
 -1.480000000E+00 -1.480000000E+00 -1.480000000E+00 -1.480000000E+00 -1.480000000E+00
 -1.480000000E+00 -1.480000000E+00 -1.480000000E+00 -1.480000000E+00 -1.480000000E+00
 -1.480000000E+00 -1.480000000E+00 -1.480000000E+00 -1.480000000E+00 -1.480000000E+00
 -1.480000000E+00 -1.480000000E+00 -1.480000000E+00 -1.480000000E+00 -1.480000000E+00
 -1.480000000E+00 -1.480000000E+00 -1.480000000E+00 -1.480000000E+00 -1.480000000E+00
 -1.480000000E+00 -1.480000000E+00 -1.480000000E+00 -1.480000000E+00 -1.480000000E+00
 -1.480000000E+00 -1.480000000E+00 -1.480000000E+00 -1.480000000E+00 -1.480000000E+00
 -1.480000000E+00 -1.480000000E+00 -1.480000000E+00 -1.480000000E+00 -1.480000000E+00
 -1.480000000E+00 -1.480000000E+00 -1.480000000E+00 -1.480000000E+00 -1.480000000E+00
 -1.480000000E+00 -1.480000000E+00 -1.480000000E+00 -1.480000000E+00 -1.480000000E+00
 -1.480000000E+00 -1.480000000E+00 -1.480000000E+00 -1.480000000E+00 -1.480000000E+00
 -1.480000000E+00 -1.480000000E+00 -1.480000000E+00 -1.480000000E+00 -1.480000000E+00
 -1.480000000E+00 -1.480000000E+00 -1.480000000E+00 -1.480000000E+00 -1.480000000E+00
 -1.480000000E+00 -1.480000000E+00 -1.480000000E+00 -1.480000000E+00 -1.480000000E+00
 -1.480000000E+00 -1.480000000E+00 -1.480000000E+00 -1.480000000E+00 -1.480000000E+00
 -1.480000000E+00 -1.480000000E+00 -1.480000000E+00 -1.480000000E+00 -1.480000000E+00
 -1.480000000E+00 -1.480000000E+00 -1.480000000E+00 -1.480000000E+00 -1.480000000E+00
 -1.480000000E+00 -1.480000000E+00 -1.480000000E+00 -1.480000000E+00 -1.480000000E+00
 -1.480000000E+00 -1.480000000E+00 -1.480000000E+00 -1.480000000E+00 -1.480000000E+00
 -1.480000000E+00 -1.480000000E+00 -1.480000000E+00 -1.480000000E+00 -1.480000000E+00
 -1.480000000E+00 -1.480000000E+00 -1.480000000E+00 -1.480000000E+00 -1.480000000E+00
 -1.480000000E+00 -1.480000000E+00 -1.480000000E+00 -1.480000000E+00 -1.480000000E+00
 -1.480000000E+00 -1.480000000E+00 -1.480000000E+00 -1.480000000E+00 -1.480000000E+00
 -1.480000000E+00 -1.480000000E+00 -1.480000000E+00 -1.480000000E+00 -1.480000000E+00
 -1.480000000E+00 -1.480000000E+00 -1.480000000E+00 -1.480000000E+00 -1.480000000E+00
 -1.480000000E+00 -1.480000000E+00 -1.480000000E+00 -1.480000000E+00 -1.480000000E+00
 -1.480000000E+00 -1.480000000E+00 -1.480000000E+00 -1.480000000E+00 -1.480000000E+00
 -1.480000000E+00 -1.480000000E+00 -1.480000000E+00 -1.480000000E+00 -1.480000000E+00
 -1.480000000E+00 -1.480000000E+00 -1.480000000E+00 -1.480000000E+00 -1.480000000E+00
 -1.480000000E+00 -1.480000000E+00 -1.480000000E+00 -1.480000000E+00 -1.480000000E+00
 -1.480000000E+00 -1.480000000E+00 -1.480000000E+00 -1.480000000E+00 -1.480000000E+00
 -1.480000000E+00 -1.480000000E+00 -1.480000000E+00 -1.480000000E+00 -1.480000000E+00
 -1.480000000E+00 -1.480000000E+00 -1.480000000E+00 -1.480000000E+00 -1.480000000E+00
 -1.480000000E+00 -1.480000000E+00 -1.480000000E+00 -1.480000000E+00 -1.480000000E+00
 -1.480000000E+00 -1.480000000E+00 -1.480000000E+00 -1.480000000E+00 -1.480000000E+00
 -1.480000000E+00 -1.480000000E+00 -1.480000000E+00 -1.480000000E+00 -1.480000000E+00
 -1.480000000E+00 -1.480000000E+00 -1.480000000E+00 -1.480000000E+00 -1.480000000E+00
 -1.480000000E+00 -1.480000000E+00 -1.480000000E+00 -1.480000000E+00 -1.480000000E+00
 -1.480000000E+00 -1.480000000E+00 -1.480000000E+00 -1.480000000E+00 -1.480000000E+00
 -1.480000000E+00 -1.480000000E+00 -1.480000000E+00 -1.480000000E+00 -1.480000000E+00
 -1.480000000E+00 -1.480000000E+00 -1.480000000E+00 -1.480000000E+00 -1.480000000E+00
 -1.480000000E+00 -1.480000000E+00 -1.480000000E+00 -1.480000000E+00 -1.480000000E+00
 -1.480000000E+00 -1.480000000E+00 -1.480000000E+00 -1.480000000E+00 -1.480000000E+00
 -1.480000000E+00 -1.480000000E+00 -1.480000000E+00 -1.480000000E+00 -1.480000000E+00
 -1.480000000E+00 -1.480000000E+00 -1.480000000E+00 -1.480000000E+00 -1.480000000E+00
 -1.480000000E+00 -1.480000000E+00 -1.480000000E+00 -1.480000000E+00 -1.480000000E+00
 -1.480000000E+00 -1.480000000E+00 -1.480000000E+00 -1.480000000E+00 -1.480000000E+00
 -1.480000000E+00 -1.480000000E+00 -1.480000000E+00 -1.480000000E+00 -1.480000000E+00
 -1.480000000E+00 -1.480000000E+00 -1.480000000E+00 -1.480000000E+00 -1.480000000E+00
 -1.480000000E+00 -1.480000000E+00 -1.480000000E+00 -1.480000000E+00 -1.480000000E+00
 -1.480000000E+00 -1.480000000E+00 -1.480000000E+00 -1.480000000E+00 -1.480000000E+00
 -1.480000000E+00 -1.480000000E+00 -1.480000000E+00 -1.480000000E+00 -1.480000000E+00
 -1.480000000E+00 -1.480000000E+00 -1.480000000E+00 -1.480000000E+00 -1.480000000E+00
 -1.480000000E+00 -1.480000000E+00 -1.480000000E+00 -1.480000000E+00 -1.480000000E+00
 -1.480000000E+00 -1.480000000E+00 -1.480000000E+00 -1.480000000E+00 -1.480000000E+00
 -1.480000000E+00 -1.480000000E+00
 -7.124797001E+01 -7.243241215E+01 -7.214160739E+01 -7.225892505E+01 -7.623725900E+01
 -7.219601766E+01 -8.033320832E+01 -7.225995989E+01 -8.498420190E+01 -7.226659796E+01
 -9.021520264E+01 -7.228907483E+01 -9.581453735E+01 -7.218528074E+01 -1.014210848E+02
 -7.197371609E+01 -1.077223963E+02 -7.163405885E+01 -1.151018014E+02 -7.125133767E+01
 -1.336522891E+02 -1.266646492E+02 -1.237416898E+02 -7.109930160E+01 -1.425929052E+02
 -7.107535602E+01 -1.509320207E+02 -7.076462210E+01 -1.587937622E+02 -7.029542132E+01
 -1.654298358E+02 -7.024420745E+01 -1.726951513E+02 -7.089590065E+01 -1.809553464E+02
 -7.143136495E+01 -1.908282773E+02 -7.113578668E+01 -1.997589257E+02 -7.059798316E+01
 -2.054791268E+02 -7.035842282E+01 -2.105075002E+02 -7.058055311E+01 -2.161854743E+02
 -7.160238301E+01 -2.220958762E+02 -7.234028487E+01 -2.278845059E+02 -7.264152700E+01
 -2.344963391E+02 -7.299635826E+01 -2.418047479E+02 -7.365416464E+01 -2.460467304E+02
 -7.482757874E+01 -2.482084152E+02 -7.700619978E+01 -2.533377852E+02 -8.519764714E+01
 -2.604417339E+02 -1.047071981E+02 -2.667834288E+02 -6.232163794E+01 -2.724288418E+02
 -9.494168425E-01 -2.782044231E+02 1.391283378E+01 -2.841197489E+02 3.022893288E+01
 -2.898512791E+02 4.103333769E+01 -2.954435978E+02 4.925459332E+01 -3.018185582E+02
 5.484078695E+01 -3.091601964E+02 5.892544653E+01 -3.164374249E+02 6.449857984E+01
 -3.246316399E+02 6.755764735E+01 -3.342298643E+02 6.903856126E+01 -3.388371783E+02
 6.926023111E+01 -3.391415501E+02 6.773956960E+01 -3.436777583E+02 6.592099491E+01
 -3.517069814E+02 6.309452766E+01 -3.590674927E+02 6.038146410E+01 -3.656095850E+02
 5.709754479E+01 -3.721705789E+02 5.294029779E+01 -3.786454663E+02 4.803243971E+01
 -3.856094354E+02 4.187175531E+01 -3.917310598E+02 3.536193625E+01 -3.976304932E+02
 2.802418354E+01 -4.038634186E+02 2.054672221E+01 -4.092985241E+02 1.280778445E+01
 -4.145089302E+02 4.325385047E+00 -4.194989333E+02 -4.113841091E+00 -4.248327496E+02
 -1.318947349E+01 -4.284823190E+02 -2.380905724E+01 -4.317274253E+02 -3.320841016E+01
 -4.349164476E+02 -4.369055517E+01 -4.382028823E+02 -5.428895558E+01 -4.424677451E+02
 -6.392296840E+01 -4.476668568E+02 -7.289407608E+01 -4.529255048E+02 -8.089223591E+01
 -4.584420699E+02 -8.687105055E+01 -4.639019473E+02 -9.175251639E+01 -4.692649825E+02
 -9.798795530E+01 -4.757398053E+02 -1.001834473E+02 -4.826697122E+02 -1.035936920E+02
 -4.916246009E+02 -1.054251921E+02 -5.023288852E+02 -1.040475497E+02 -5.183151770E+02
 -1.033463018E+02 -5.390001798E+02 -1.000162375E+02 -5.620759996E+02 -9.704108532E+01
 -5.770394542E+02 -9.105902596E+01 -5.880282482E+02 -8.596261059E+01 -6.272897025E+02
 -8.177388657E+01 -6.853638503E+02 -7.408100339E+01 -7.854878190E+02 -6.825420624E+01
 -8.855782324E+02 -5.983681469E+01 -9.258483451E+02 -4.954876071E+01 -9.494612688E+02
 -4.252191398E+01 -9.732395719E+02 -3.317459271E+01 -9.963792692E+02 -2.296201702E+01
 -1.021180230E+03 -1.467636767E+01 -1.048535349E+03 -6.987821277E+00 -1.079167616E+03
 -1.994377340E-01 -1.113926279E+03 6.893491029E+00 -1.158236899E+03 1.399344355E+01
 -1.224159558E+03 2.102919599E+01 -1.303983154E+03 2.820866082E+01 -1.321275177E+03
 3.499015871E+01 -1.301984830E+03 4.185913414E+01 -1.299075438E+03 4.846036623E+01
 -9.883631945E+02 5.464543389E+01 -5.163821590E+02 6.135240616E+01 -2.105309985E+02
 6.761456831E+01 6.087244253E+01 7.355907168E+01 2.616842635E+02 7.976419246E+01
 3.469575884E+02 8.586912522E+01 3.678360030E+02 9.220471627E+01 3.565799368E+02
 9.895086284E+01 3.305643719E+02 1.059129878E+02 3.095432380E+02 1.134761606E+02
 2.961483085E+02 1.225312597E+02 2.798769320E+02 1.327970801E+02 2.584559447E+02
 1.446176455E+02 2.414251373E+02 1.638808380E+02 2.313136778E+02 1.847399148E+02
 2.218967081E+02 2.044077366E+02 6.728183974E-03 6.872934892E-03 7.001771522E-03
 6.559874241E-03 7.118054762E-03 6.373362222E-03 7.241804067E-03 6.180520788E-03
 7.346633271E-03 5.979557712E-03 7.452343910E-03 5.773151359E-03 7.563135864E-03
 5.559391810E-03 7.655131245E-03 5.340741398E-03 7.753007900E-03 5.115611375E-03
 7.842148380E-03 4.886068853E-03 7.925660368E-03 4.650992480E-03 8.014899711E-03
 4.411914914E-03 8.087778965E-03 4.045642229E-03 4.168179062E-03 3.920857307E-03
 8.164267503E-03 3.669791579E-03 8.238487769E-03 3.415508378E-03 8.303493558E-03
 3.158283564E-03 8.374286727E-03 2.898281542E-03 8.431354665E-03 2.636138510E-03
 8.490987128E-03 2.371379543E-03 8.602324986E-03 8.598658587E-03 8.551567298E-03
 2.105583493E-03 8.658439835E-03 1.837229210E-03 8.703648710E-03 1.568348168E-03
 8.750955792E-03 1.328341648E-03 8.798611729E-03 1.143738301E-03 8.839396310E-03
 1.000922592E-03 8.884472259E-03 8.494959555E-04 8.920419803E-03 6.867855759E-04
 8.958528807E-03 5.412562782E-04 8.992188602E-03 3.914661691E-04 9.021910855E-03
 2.281790829E-04 9.055283909E-03 7.621745649E-05 9.082803659E-03 -7.211417395E-05
 9.111993839E-03 -9.062813020E-03 -8.893183622E-03 -8.708138464E-03 -2.329343248E-04
 9.134241823E-03 -9.220636285E-03 -8.502151234E-03 -3.899729133E-04 9.156815445E-03
 -9.361337625E-03 -8.296601868E-03 -5.369258002E-04 9.176501882E-03 -9.521994716E-03
 -8.081849080E-03 -6.953817977E-04 9.192407890E-03 -9.652053148E-03 -7.867693136E-03
 -8.561144666E-04 9.207557323E-03 -9.789826459E-03 -7.645154538E-03 -1.001832750E-03
 9.216175710E-03 -9.943695150E-03 -7.423054499E-03 -1.158676909E-03 9.223944281E-03
 -1.006344028E-02 -7.193503867E-03 -1.322835768E-03 9.224383896E-03 -1.020117352E-02
 -6.964119400E-03 -1.467072848E-03 9.209132675E-03 -1.032668369E-02 -6.728314184E-03
 -1.621878834E-03 9.193460645E-03 -1.044341307E-02 -6.492322104E-03 -1.789047205E-03
 8.919016791E-03 -1.057900635E-02 -6.162596231E-03 -6.250985136E-03 -6.009028583E-03
 -1.932442432E-03 6.649919429E-03 -1.067934603E-02 -5.762843995E-03 -2.083841148E-03
 4.647127621E-03 -1.079351077E-02 -5.515409684E-03 -2.251346042E-03 4.608234064E-03
 -1.090906361E-02 -5.265404062E-03 -2.398537331E-03 4.837284933E-03 -1.100130849E-02
 -5.012897986E-03 -2.546121115E-03 5.213221689E-03 -1.111374998E-02 -4.759525095E-03
 -2.709461196E-03 1.558494100E-02 -1.118900800E-02 -4.502864607E-03 -2.863130703E-03
 2.028885980E-02 -1.127425838E-02 -4.245787933E-03 -3.005911888E-03 1.334604441E-02
 -1.136768270E-02 -3.985966480E-03 -3.163237519E-03 1.168971359E-02 -1.150363589E-02
 -1.143928093E-02 -1.142607906E-02 -3.724886878E-03 -3.325276672E-03 1.136310712E-02
 -1.154462183E-02 -3.492376980E-03 1.120910929E-02 -1.158796771E-02 1.114918732E-02
 -1.161353375E-02 1.110181669E-02 -1.160029751E-02 1.109417350E-02 -1.156186088E-02
 1.102407610E-02 -8.760782142E-03 1.102730967E-02 -6.006745414E-03 1.096568691E-02
 -5.994199595E-03 1.096640873E-02 -6.306960253E-03 1.097983251E-02 -6.889532085E-03
 1.095475582E-02 -1.949090154E-02 1.100413749E-02 -2.505452708E-02 1.095528788E-02
 -1.651151342E-02 1.096232687E-02 -1.456303205E-02 1.100450822E-02 -1.421639203E-02
 1.095977507E-02 -1.407096611E-02 1.100526131E-02 -1.401179617E-02 1.094788825E-02
 -1.389869112E-02 1.092800674E-02 -1.386113246E-02 1.099370827E-02 -1.378523919E-02
 1.090482527E-02 -1.378792804E-02 1.093211962E-02 -1.373246203E-02 1.092180401E-02
 -1.371592454E-02 1.087102093E-02 -1.375676897E-02 1.098370031E-02 -1.371440652E-02
 1.089419844E-02 -1.376632491E-02 1.093267097E-02 -1.371237197E-02 1.096906565E-02
 -1.375958175E-02 1.103781332E-02 -1.373293435E-02 1.115151667E-02 -1.372080941E-02
 1.131120788E-02 -1.380780706E-02 1.149649446E-02 -1.374777720E-02 1.167306606E-02
 -1.384431599E-02 1.189300272E-02 -1.376031306E-02 1.214569921E-02 -1.377053607E-02
 1.244898453E-02 -1.387912071E-02 1.276286724E-02 -1.390138812E-02 1.327177566E-02
 1.310379280E-02 1.344214940E-02 -1.382831771E-02 1.379443314E-02 -1.396749024E-02
 1.415075789E-02 -1.387138538E-02 1.450159934E-02 -1.389611491E-02 1.487338919E-02
 -1.408929070E-02 1.522947186E-02 -1.399779679E-02 1.566201119E-02 -1.416783745E-02
 1.608856616E-02 -1.412949783E-02 1.668877058E-02 -1.414369211E-02 1.723642724E-02
 -1.440676459E-02 1.805509851E-02 -1.428016623E-02 1.936750085E-02 -1.444414867E-02
 1.888216129E-02 -1.454780323E-02 1.949164827E-02 -1.451716534E-02 2.172167040E-02
 -1.486401475E-02 2.154594859E-02 -1.468059019E-02 2.199138302E-02 -1.478263889E-02
 2.470873401E-02 -1.512830929E-02 2.581776531E-02 -1.496002754E-02 2.634058661E-02
 -1.525848889E-02 -1.532876450E-02 -1.527493472E-02 2.986301882E-02 -1.553326940E-02
 3.314095091E-02 -1.564557674E-02 3.393183049E-02 -1.592456778E-02 3.896298129E-02
 -1.613545764E-02 4.526895450E-02 -1.660722235E-02 4.437122941E-02 -1.703469746E-02
 4.814034715E-02 -1.782014836E-02 5.710271145E-02 -1.853858600E-02 6.301963235E-02
 -1.966878270E-02 9.691450061E-02 -2.064335387E-02 1.683305057E-01 -2.248623015E-02
 -2.205507252E-02 1.846302081E-01 -2.324191968E-02 1.954787877E-02 -2.507468900E-02
 -4.113592671E-01 -2.687925124E-02 -9.998636673E-01 -2.998904780E-02 -1.440797353E+00
 -3.318864266E-02 -1.539130634E+00 -3.687223339E-02 -1.379176313E+00 -3.776527639E-02
 -1.077932480E+00 -4.002532634E-02 -5.896632786E-01 -3.644471143E-02 -1.324318921E-01
 -1.418403973E-02 1.007310141E-02
 2 1
 1 3
 3 5
 5 7
 7 9
 9 11
 11 13
 13 15
 15 17
 17 19
 19 23
 23 22
 22 21
 21 25
 25 27
 27 29
 29 31
 31 33
 33 35
 35 37
 37 39
 39 41
 41 43
 43 45
 45 47
 47 49
 49 51
 51 53
 53 55
 55 57
 57 59
 59 61
 61 63
 63 65
 65 67
 67 69
 69 71
 71 73
 73 75
 75 77
 77 79
 79 81
 81 83
 83 85
 85 87
 87 89
 89 91
 91 93
 93 95
 95 97
 97 99
 99 101
 101 103
 103 105
 105 107
 107 109
 109 111
 111 113
 113 115
 115 117
 117 119
 119 121
 121 123
 123 125
 125 127
 127 129
 129 131
 131 133
 133 135
 135 137
 137 139
 139 141
 141 143
 143 145
 145 147
 147 149
 149 151
 151 153
 153 155
 155 157
 157 159
 159 161
 161 163
 163 165
 165 167
 167 169
 169 171
 171 173
 173 175
 175 177
 177 179
 179 181
 181 183
 183 185
 185 187
 187 189
 189 191
 191 193
 193 195
 195 197
 197 199
 199 201
 201 203
 203 205
 205 207
 207 209
 209 211
 211 213
 213 215
 215 217
 217 219
 219 221
 221 222
 222 220
 220 218
 218 216
 216 214
 214 212
 212 210
 210 208
 208 206
 206 204
 204 202
 202 200
 200 198
 198 196
 196 194
 194 192
 192 190
 190 188
 188 186
 186 184
 184 182
 182 180
 180 178
 178 176
 176 174
 174 172
 172 170
 170 168
 168 166
 166 164
 164 162
 162 160
 160 158
 158 156
 156 154
 154 152
 152 150
 150 148
 148 146
 146 144
 144 142
 142 140
 140 138
 138 136
 136 134
 134 132
 132 130
 130 128
 128 126
 126 124
 124 122
 122 120
 120 118
 118 116
 116 114
 114 112
 112 110
 110 108
 108 106
 106 104
 104 102
 102 100
 100 98
 98 96
 96 94
 94 92
 92 90
 90 88
 88 86
 86 84
 84 82
 82 80
 80 78
 78 76
 76 74
 74 72
 72 70
 70 68
 68 66
 66 64
 64 62
 62 60
 60 58
 58 56
 56 54
 54 52
 52 50
 50 48
 48 46
 46 44
 44 42
 42 40
 40 38
 38 36
 36 34
 34 32
 32 30
 30 28
 28 26
 26 24
 24 20
 20 18
 18 16
 16 14
 14 12
 12 10
 10 8
 8 6
 6 4
 4 2
 250 248
 248 249
 249 246
 246 244
 244 242
 242 240
 240 238
 238 236
 236 234
 234 232
 232 230
 230 228
 228 226
 226 223
 223 224
 224 225
 225 227
 227 229
 229 231
 231 233
 233 235
 235 237
 237 239