TITLE     = "Fluent Common Fluid Files Data"
VARIABLES = "X"
"Y"
"Static Pressure"
DATASETAUXDATA Common.DensityVar="7"
DATASETAUXDATA Common.PressureVar="15"
DATASETAUXDATA Common.TemperatureVar="17"
DATASETAUXDATA Common.TurbulentDynamicViscosityVar="12"
DATASETAUXDATA Common.TurbulentKineticEnergyVar="10"
DATASETAUXDATA Common.UVar="18"
DATASETAUXDATA Common.VectorVarsAreVelocity="True"
DATASETAUXDATA Common.ViscosityVar="11"
DATASETAUXDATA Common.VVar="19"
DATASETAUXDATA Common.WVar="20"
ZONE T="Slice: Y=-1.48"
 STRANDID=7, SOLUTIONTIME=0
 Nodes=542, Elements=542, ZONETYPE=FELineSeg
 DATAPACKING=BLOCK
 DT=(DOUBLE DOUBLE DOUBLE )
 2.539488920E+00 2.539490630E+00 2.537840056E+00 2.539491884E+00 2.536119338E+00
 2.539493149E+00 2.534402100E+00 2.539494426E+00 2.532676862E+00 2.539495196E+00
 2.530950816E+00 2.539495432E+00 2.529226401E+00 2.539495685E+00 2.527502732E+00
 2.539495954E+00 2.525773750E+00 2.539496239E+00 2.524045487E+00 2.539496541E+00
 2.520604533E+00 2.521809178E+00 2.522318042E+00 2.539496859E+00 2.518901075E+00
 2.539497290E+00 2.517187445E+00 2.539497954E+00 2.515473960E+00 2.539499068E+00
 2.513757641E+00 2.539500193E+00 2.512042153E+00 2.539501331E+00 2.510336256E+00
 2.539502481E+00 2.508629984E+00 2.539503644E+00 2.506928039E+00 2.539504815E+00
 2.505216178E+00 2.539505994E+00 2.503496960E+00 2.539507184E+00 2.501780267E+00
 2.539508386E+00 2.500065726E+00 2.539509600E+00 2.498349364E+00 2.539510545E+00
 2.496634636E+00 2.539510628E+00 2.494921250E+00 2.539510729E+00 2.493209613E+00
 2.539510848E+00 2.491477825E+00 2.539510984E+00 2.489741442E+00 2.539511138E+00
 2.488016223E+00 2.539511309E+00 2.486296220E+00 2.539510933E+00 2.484572761E+00
 2.537695485E+00 2.482838752E+00 2.535885260E+00 2.481104740E+00 2.534063549E+00
 2.479371634E+00 2.532233819E+00 2.477635556E+00 2.530398053E+00 2.475896464E+00
 2.528560134E+00 2.474155395E+00 2.526708976E+00 2.472415412E+00 2.524865147E+00
 2.470676029E+00 2.523015775E+00 2.468936150E+00 2.521159418E+00 2.467190659E+00
 2.519306027E+00 2.465418062E+00 2.517458520E+00 2.463642358E+00 2.515614204E+00
 2.461878849E+00 2.513774666E+00 2.460117421E+00 2.511945405E+00 2.458349920E+00
 2.510108712E+00 2.456578956E+00 2.508282723E+00 2.454799533E+00 2.506465142E+00
 2.453007475E+00 2.504653158E+00 2.451214949E+00 2.502846969E+00 2.449420163E+00
 2.501043711E+00 2.447627954E+00 2.499243492E+00 2.445829458E+00 2.497443655E+00
 2.444018834E+00 2.495644869E+00 2.442196989E+00 2.493846017E+00 2.440365057E+00
 2.492045452E+00 2.438531200E+00 2.490244531E+00 2.436683723E+00 2.488441339E+00
 2.434835916E+00 2.486633844E+00 2.432974724E+00 2.484826020E+00 2.431110979E+00
 2.483012915E+00 2.429237082E+00 2.481199266E+00 2.427352983E+00 2.479381085E+00
 2.425461603E+00 2.477557016E+00 2.423553260E+00 2.475733386E+00 2.421637160E+00
 2.473903383E+00 2.419707839E+00 2.472077143E+00 2.417769982E+00 2.470244275E+00
 2.415823781E+00 2.468410798E+00 2.413862784E+00 2.466580223E+00 2.411880458E+00
 2.464743738E+00 2.409888100E+00 2.462912000E+00 2.407886951E+00 2.461079699E+00
 2.406724506E+00 2.459251062E+00 2.405895647E+00 2.457420987E+00 2.403918405E+00
 2.455589554E+00 2.401921045E+00 2.453764414E+00 2.399926438E+00 2.451934385E+00
 2.397921299E+00 2.450108880E+00 2.397364602E+00 2.448287516E+00 2.396811826E+00
 2.446465533E+00 2.396260047E+00 2.444650290E+00 2.395705726E+00 2.442845206E+00
 2.395150744E+00 2.441042158E+00 2.394599044E+00 2.439242386E+00 2.394053369E+00
 2.437449498E+00 2.393515634E+00 2.435655226E+00 2.392989480E+00 2.433861302E+00
 2.392479059E+00 2.432068847E+00 2.391988689E+00 2.430280230E+00 2.391532989E+00
 2.428496960E+00 2.391136506E+00 2.426713459E+00 2.390800005E+00 2.424941002E+00
 2.390550620E+00 2.423167827E+00 2.390463314E+00 2.421400519E+00 2.390477037E+00
 2.419640258E+00 2.390571654E+00 2.417885838E+00 2.390799729E+00 2.416143645E+00
 2.391170019E+00 2.414402572E+00 2.391618421E+00 2.412677023E+00 2.392120050E+00
 2.410959844E+00 2.392683928E+00 2.409253638E+00 2.393283123E+00 2.407569003E+00
 2.393869978E+00 2.405888403E+00 2.394457459E+00 2.404231251E+00 2.395083211E+00
 2.402594609E+00 2.395754271E+00 2.400981112E+00 2.396452136E+00 2.399415178E+00
 2.397156614E+00 2.397859968E+00 -7.036664825E+01 -6.894029162E+01 -6.751315262E+01
 -7.211550460E+01 -6.604412649E+01 -7.384855605E+01 -6.454525715E+01 -7.550780473E+01
 -6.304682442E+01 -7.714527015E+01 -6.148520360E+01 -7.871043240E+01 -5.992200568E+01
 -8.024709719E+01 -5.833058652E+01 -8.171422814E+01 -5.670570140E+01 -8.314649190E+01
 -5.507980586E+01 -8.451088158E+01 -5.340480552E+01 -8.583534942E+01 -5.172322470E+01
 -8.709251465E+01 -5.002364723E+01 -8.887470345E+01 -8.830667781E+01 -8.945309681E+01
 -4.828926837E+01 -9.055382971E+01 -4.655484770E+01 -9.158588643E+01 -4.478259645E+01
 -9.257169526E+01 -4.300210608E+01 -9.348535069E+01 -4.121527243E+01 -9.435483646E+01
 -3.938381010E+01 -9.514643218E+01 -3.570563212E+01 -3.583958260E+01 -3.755984458E+01
 -9.589888167E+01 -3.384617289E+01 -9.656540704E+01 -3.197299673E+01 -9.720009207E+01
 -3.008015596E+01 -9.773865028E+01 -2.818808140E+01 -9.803045254E+01 -2.626839904E+01
 -9.831542939E+01 -2.435001374E+01 -9.854130190E+01 -2.241572493E+01 -9.876724898E+01
 -2.047447237E+01 -9.899314389E+01 -1.852401768E+01 -9.916603655E+01 -1.656689924E+01
 -9.932640808E+01 -1.460023474E+01 -9.948694384E+01 -1.263389855E+01 -9.961047711E+01
 -1.065437767E+01 -6.894494642E+01 -7.036664838E+01 -7.205204376E+01 -9.970616356E+01
 -8.680359625E+00 -6.752247578E+01 -7.372149922E+01 -9.980176676E+01 -6.691826263E+00
 -6.605879760E+01 -7.532778896E+01 -9.987306839E+01 -4.711762867E+00 -6.456483033E+01
 -7.690465340E+01 -9.990477802E+01 -2.718790464E+00 -6.307134958E+01 -7.842819516E+01
 -9.993651513E+01 -7.353545071E-01 -6.151589982E+01 -7.990826651E+01 -9.995236878E+01
 1.258292735E+00 -5.995786665E+01 -8.134540295E+01 -9.992065567E+01 3.241743657E+00
 -5.837321103E+01 -8.272497228E+01 -9.988891951E+01 5.233928302E+00 -5.675363916E+01
 -8.407203196E+01 -9.984968391E+01 7.213170066E+00 -5.513320014E+01 -8.534781282E+01
 -9.975395621E+01 9.201848109E+00 -5.346556284E+01 -8.660109498E+01 -9.965836702E+01
 1.117386875E+01 -5.178956882E+01 -8.819252528E+01 -8.777027744E+01 -8.892607277E+01
 -9.956264214E+01 1.315392759E+01 -5.009782264E+01 -8.998636463E+01 -9.940669091E+01
 1.511683236E+01 -4.836908003E+01 -9.104099856E+01 -9.924615791E+01 1.708355435E+01
 -4.664058828E+01 -9.199058870E+01 -9.908573904E+01 1.903646113E+01 -4.487652671E+01
 -9.293996040E+01 -9.887997051E+01 2.098570998E+01 -4.310198364E+01 -9.377798406E+01
 -9.865406797E+01 2.292736558E+01 -4.132367263E+01 -9.461547466E+01 -9.842805172E+01
 2.485645024E+01 -3.949807232E+01 -9.534415653E+01 -9.817594343E+01 2.677496441E+01
 -3.768046547E+01 -9.606879024E+01 -9.788396624E+01 2.868776718E+01 -3.398163904E+01
 -3.551941687E+01 -3.583486014E+01 -9.668534237E+01 -9.759211376E+01 3.057925792E+01
 -3.211723797E+01 -9.729647354E+01 3.246797572E+01 -3.023040341E+01 3.433725241E+01
 -2.834505094E+01 3.619733474E+01 -2.643397401E+01 3.637868822E+01 -2.452204724E+01
 3.804205082E+01 -2.259636295E+01 3.986552280E+01 -2.066118317E+01 4.169089530E+01
 -1.871773544E+01 4.347325679E+01 -1.676881303E+01 4.525428149E+01 -1.480873667E+01
 4.701451935E+01 -1.285043790E+01 4.874828425E+01 -1.087755374E+01 5.047993113E+01
 -8.911352941E+00 5.216938782E+01 -6.928897582E+00 5.385115329E+01 -4.956135820E+00
 5.551177711E+01 -2.970200706E+00 5.713724583E+01 -9.934911340E-01 5.876284522E+01
 9.934855881E-01 6.033821900E+01 2.970194971E+00 6.190156327E+01 4.956128941E+00
 6.344661966E+01 6.928889936E+00 6.494494716E+01 8.911347017E+00 6.644422697E+01
 1.087754939E+01 6.789515435E+01 1.285043418E+01 6.932240209E+01 1.480873341E+01
 7.074571310E+01 1.676880972E+01 7.245922916E+01 1.871773064E+01 7.417322070E+01
 2.066117777E+01 7.579605294E+01 2.259635905E+01 7.741551588E+01 2.452204364E+01
 7.894691658E+01 2.643397117E+01 8.046668361E+01 2.834504868E+01 8.190297772E+01
 3.023040021E+01 8.331950123E+01 3.211723508E+01 8.465621406E+01 3.398163818E+01
 8.596613305E+01 3.551945215E+01 8.719897315E+01 3.583485943E+01 8.895855254E+01
 8.839981565E+01 8.952544483E+01 3.768046361E+01 9.061410656E+01 3.949806964E+01
 9.162904258E+01 4.132367181E+01 9.260405346E+01 4.310198396E+01 9.350436542E+01
 4.487652682E+01 9.436433835E+01 4.664058812E+01 9.514642677E+01 4.836907976E+01
 9.589065773E+01 5.009782235E+01 9.655154314E+01 5.178957053E+01 9.717930698E+01
 5.346556451E+01 9.771608974E+01 5.513319973E+01 9.800879837E+01 5.675363737E+01
 9.829935998E+01 5.837321001E+01 9.852593648E+01 5.995786579E+01 9.875258577E+01
 6.151589876E+01 9.897918168E+01 6.307134946E+01 9.915662949E+01 6.456483088E+01
 9.931750372E+01 6.605879805E+01 9.947853574E+01 6.752247574E+01 9.960576768E+01
 6.894494651E+01 7.205120393E+01 7.036664822E+01 9.970175612E+01 7.371982128E+01
 9.979765382E+01 7.532541462E+01 9.987179982E+01 7.690148997E+01 9.990360606E+01
 7.842449004E+01 9.993544238E+01 7.990382319E+01 9.995334046E+01 8.134057623E+01
 9.992153144E+01 8.271946064E+01 9.988969649E+01 8.406629810E+01 9.985171559E+01
 8.534144639E+01 9.975568372E+01 8.659468276E+01 9.965979636E+01 8.818364215E+01
 8.776328905E+01 9.956377801E+01 8.891920998E+01 9.940809382E+01 8.997898232E+01
 9.924705975E+01 9.103391759E+01 9.908613941E+01 9.198304732E+01 9.887982798E+01
 9.293201085E+01 9.865321962E+01 9.377050691E+01 9.842649665E+01 9.460763270E+01
 9.817301599E+01 9.533697634E+01 9.788012477E+01 9.606125155E+01 9.758736121E+01
 9.667868785E+01 9.728970090E+01
 -1.480000000E+00 -1.480000000E+00 -1.480000000E+00 -1.480000000E+00 -1.480000000E+00
 -1.480000000E+00 -1.480000000E+00 -1.480000000E+00 -1.480000000E+00 -1.480000000E+00
 -1.480000000E+00 -1.480000000E+00 -1.480000000E+00 -1.480000000E+00 -1.480000000E+00
 -1.480000000E+00 -1.480000000E+00 -1.480000000E+00 -1.480000000E+00 -1.480000000E+00
 -1.480000000E+00 -1.480000000E+00 -1.480000000E+00 -1.480000000E+00 -1.480000000E+00
 -1.480000000E+00 -1.480000000E+00 -1.480000000E+00 -1.480000000E+00 -1.480000000E+00
 -1.480000000E+00 -1.480000000E+00 -1.480000000E+00 -1.480000000E+00 -1.480000000E+00
 -1.480000000E+00 -1.480000000E+00 -1.480000000E+00 -1.480000000E+00 -1.480000000E+00
 -1.480000000E+00 -1.480000000E+00 -1.480000000E+00 -1.480000000E+00 -1.480000000E+00
 -1.480000000E+00 -1.480000000E+00 -1.480000000E+00 -1.480000000E+00 -1.480000000E+00
 -1.480000000E+00 -1.480000000E+00 -1.480000000E+00 -1.480000000E+00 -1.480000000E+00
 -1.480000000E+00 -1.480000000E+00 -1.480000000E+00 -1.480000000E+00 -1.480000000E+00
 -1.480000000E+00 -1.480000000E+00 -1.480000000E+00 -1.480000000E+00 -1.480000000E+00
 -1.480000000E+00 -1.480000000E+00 -1.480000000E+00 -1.480000000E+00 -1.480000000E+00
 -1.480000000E+00 -1.480000000E+00 -1.480000000E+00 -1.480000000E+00 -1.480000000E+00
 -1.480000000E+00 -1.480000000E+00 -1.480000000E+00 -1.480000000E+00 -1.480000000E+00
 -1.480000000E+00 -1.480000000E+00 -1.480000000E+00 -1.480000000E+00 -1.480000000E+00
 -1.480000000E+00 -1.480000000E+00 -1.480000000E+00 -1.480000000E+00 -1.480000000E+00
 -1.480000000E+00 -1.480000000E+00 -1.480000000E+00 -1.480000000E+00 -1.480000000E+00
 -1.480000000E+00 -1.480000000E+00 -1.480000000E+00 -1.480000000E+00 -1.480000000E+00
 -1.480000000E+00 -1.480000000E+00 -1.480000000E+00 -1.480000000E+00 -1.480000000E+00
 -1.480000000E+00 -1.480000000E+00 -1.480000000E+00 -1.480000000E+00 -1.480000000E+00
 -1.480000000E+00 -1.480000000E+00 -1.480000000E+00 -1.480000000E+00 -1.480000000E+00
 -1.480000000E+00 -1.480000000E+00 -1.480000000E+00 -1.480000000E+00 -1.480000000E+00
 -1.480000000E+00 -1.480000000E+00 -1.480000000E+00 -1.480000000E+00 -1.480000000E+00
 -1.480000000E+00 -1.480000000E+00 -1.480000000E+00 -1.480000000E+00 -1.480000000E+00
 -1.480000000E+00 -1.480000000E+00 -1.480000000E+00 -1.480000000E+00 -1.480000000E+00
 -1.480000000E+00 -1.480000000E+00 -1.480000000E+00 -1.480000000E+00 -1.480000000E+00
 -1.480000000E+00 -1.480000000E+00 -1.480000000E+00 -1.480000000E+00 -1.480000000E+00
 -1.480000000E+00 -1.480000000E+00 -1.480000000E+00 -1.480000000E+00 -1.480000000E+00
 -1.480000000E+00 -1.480000000E+00 -1.480000000E+00 -1.480000000E+00 -1.480000000E+00
 -1.480000000E+00 -1.480000000E+00 -1.480000000E+00 -1.480000000E+00 -1.480000000E+00
 -1.480000000E+00 -1.480000000E+00 -1.480000000E+00 -1.480000000E+00 -1.480000000E+00
 -1.480000000E+00 -1.480000000E+00 -1.480000000E+00 -1.480000000E+00 -1.480000000E+00
 -1.480000000E+00 -1.480000000E+00 -1.480000000E+00 -1.480000000E+00 -1.480000000E+00
 -1.480000000E+00 -1.480000000E+00 -1.480000000E+00 -1.480000000E+00 -1.480000000E+00
 -1.480000000E+00 -1.480000000E+00 -1.480000000E+00 -1.480000000E+00 -1.480000000E+00
 -1.480000000E+00 -1.480000000E+00 -1.480000000E+00 -1.480000000E+00 -1.480000000E+00
 -1.480000000E+00 -1.480000000E+00 -1.480000000E+00 -1.480000000E+00 -1.480000000E+00
 -1.480000000E+00 -1.480000000E+00 -1.480000000E+00 -1.480000000E+00 -1.480000000E+00
 -1.480000000E+00 -1.480000000E+00 -1.480000000E+00 -1.480000000E+00 -1.480000000E+00
 -1.480000000E+00 -1.480000000E+00 -1.480000000E+00 -1.480000000E+00 -1.480000000E+00
 -1.480000000E+00 -1.480000000E+00 -1.480000000E+00 -1.480000000E+00 -1.480000000E+00
 -1.480000000E+00 -1.480000000E+00 -1.480000000E+00 -1.480000000E+00 -1.480000000E+00
 -1.480000000E+00 -1.480000000E+00 -1.480000000E+00 -1.480000000E+00 -1.480000000E+00
 -1.480000000E+00 -1.480000000E+00 -1.480000000E+00 -1.480000000E+00 -1.480000000E+00
 -1.480000000E+00 -1.480000000E+00 -1.480000000E+00 -1.480000000E+00 -1.480000000E+00
 -1.480000000E+00 -1.480000000E+00 -1.480000000E+00 -1.480000000E+00 -1.480000000E+00
 -1.480000000E+00 -1.480000000E+00 -1.480000000E+00 -1.480000000E+00 -1.480000000E+00
 -1.480000000E+00 -1.480000000E+00 -1.480000000E+00 -1.480000000E+00 -1.480000000E+00
 -1.480000000E+00 -1.480000000E+00 -1.480000000E+00 -1.480000000E+00 -1.480000000E+00
 -1.480000000E+00 -1.480000000E+00 -1.480000000E+00 -1.480000000E+00 -1.480000000E+00
 -1.480000000E+00 -1.480000000E+00 -1.480000000E+00 -1.480000000E+00 -1.480000000E+00
 -1.480000000E+00 -1.480000000E+00 -1.480000000E+00 -1.480000000E+00 -1.480000000E+00
 -1.480000000E+00 -1.480000000E+00 -1.480000000E+00 -1.480000000E+00 -1.480000000E+00
 -1.480000000E+00 -1.480000000E+00 -1.480000000E+00 -1.480000000E+00 -1.480000000E+00
 -1.480000000E+00 -1.480000000E+00 -1.480000000E+00 -1.480000000E+00 -1.480000000E+00
 -1.480000000E+00 -1.480000000E+00 -1.480000000E+00 -1.480000000E+00 -1.480000000E+00
 -1.480000000E+00 -1.480000000E+00 -1.480000000E+00 -1.480000000E+00 -1.480000000E+00
 -1.480000000E+00 -1.480000000E+00 -1.480000000E+00 -1.480000000E+00 -1.480000000E+00
 -1.480000000E+00 -1.480000000E+00 -1.480000000E+00 -1.480000000E+00 -1.480000000E+00
 -1.480000000E+00 -1.480000000E+00 -1.480000000E+00 -1.480000000E+00 -1.480000000E+00
 -1.480000000E+00 -1.480000000E+00 -1.480000000E+00 -1.480000000E+00 -1.480000000E+00
 -1.480000000E+00 -1.480000000E+00 -1.480000000E+00 -1.480000000E+00 -1.480000000E+00
 -1.480000000E+00 -1.480000000E+00 -1.480000000E+00 -1.480000000E+00 -1.480000000E+00
 -1.480000000E+00 -1.480000000E+00 -1.480000000E+00 -1.480000000E+00 -1.480000000E+00
 -1.480000000E+00 -1.480000000E+00 -1.480000000E+00 -1.480000000E+00 -1.480000000E+00
 -1.480000000E+00 -1.480000000E+00 -1.480000000E+00 -1.480000000E+00 -1.480000000E+00
 -1.480000000E+00 -1.480000000E+00 -1.480000000E+00 -1.480000000E+00 -1.480000000E+00
 -1.480000000E+00 -1.480000000E+00 -1.480000000E+00 -1.480000000E+00 -1.480000000E+00
 -1.480000000E+00 -1.480000000E+00 -1.480000000E+00 -1.480000000E+00 -1.480000000E+00
 -1.480000000E+00 -1.480000000E+00 -1.480000000E+00 -1.480000000E+00 -1.480000000E+00
 -1.480000000E+00 -1.480000000E+00 -1.480000000E+00 -1.480000000E+00 -1.480000000E+00
 -1.480000000E+00 -1.480000000E+00 -1.480000000E+00 -1.480000000E+00 -1.480000000E+00
 -1.480000000E+00 -1.480000000E+00 -1.480000000E+00 -1.480000000E+00 -1.480000000E+00
 -1.480000000E+00 -1.480000000E+00 -1.480000000E+00 -1.480000000E+00 -1.480000000E+00
 -1.480000000E+00 -1.480000000E+00 -1.480000000E+00 -1.480000000E+00 -1.480000000E+00
 -1.480000000E+00 -1.480000000E+00 -1.480000000E+00 -1.480000000E+00 -1.480000000E+00
 -1.480000000E+00 -1.480000000E+00 -1.480000000E+00 -1.480000000E+00 -1.480000000E+00
 -1.480000000E+00 -1.480000000E+00 -1.480000000E+00 -1.480000000E+00 -1.480000000E+00
 -1.480000000E+00 -1.480000000E+00 -1.480000000E+00 -1.480000000E+00 -1.480000000E+00
 -1.480000000E+00 -1.480000000E+00 -1.480000000E+00 -1.480000000E+00 -1.480000000E+00
 -1.480000000E+00 -1.480000000E+00 -1.480000000E+00 -1.480000000E+00 -1.480000000E+00
 -1.480000000E+00 -1.480000000E+00 -1.480000000E+00 -1.480000000E+00 -1.480000000E+00
 -1.480000000E+00 -1.480000000E+00 -1.480000000E+00 -1.480000000E+00 -1.480000000E+00
 -1.480000000E+00 -1.480000000E+00 -1.480000000E+00 -1.480000000E+00 -1.480000000E+00
 -1.480000000E+00 -1.480000000E+00 -1.480000000E+00 -1.480000000E+00 -1.480000000E+00
 -1.480000000E+00 -1.480000000E+00 -1.480000000E+00 -1.480000000E+00 -1.480000000E+00
 -1.480000000E+00 -1.480000000E+00 -1.480000000E+00 -1.480000000E+00 -1.480000000E+00
 -1.480000000E+00 -1.480000000E+00 -1.480000000E+00 -1.480000000E+00 -1.480000000E+00
 -1.480000000E+00 -1.480000000E+00 -1.480000000E+00 -1.480000000E+00 -1.480000000E+00
 -1.480000000E+00 -1.480000000E+00 -1.480000000E+00 -1.480000000E+00 -1.480000000E+00
 -1.480000000E+00 -1.480000000E+00 -1.480000000E+00 -1.480000000E+00 -1.480000000E+00
 -1.480000000E+00 -1.480000000E+00 -1.480000000E+00 -1.480000000E+00 -1.480000000E+00
 -1.480000000E+00 -1.480000000E+00 -1.480000000E+00 -1.480000000E+00 -1.480000000E+00
 -1.480000000E+00 -1.480000000E+00 -1.480000000E+00 -1.480000000E+00 -1.480000000E+00
 -1.480000000E+00 -1.480000000E+00 -1.480000000E+00 -1.480000000E+00 -1.480000000E+00
 -1.480000000E+00 -1.480000000E+00 -1.480000000E+00 -1.480000000E+00 -1.480000000E+00
 -1.480000000E+00 -1.480000000E+00 -1.480000000E+00 -1.480000000E+00 -1.480000000E+00
 -1.480000000E+00 -1.480000000E+00 -1.480000000E+00 -1.480000000E+00 -1.480000000E+00
 -1.480000000E+00 -1.480000000E+00 -1.480000000E+00 -1.480000000E+00 -1.480000000E+00
 -1.480000000E+00 -1.480000000E+00 -1.480000000E+00 -1.480000000E+00 -1.480000000E+00
 -1.480000000E+00 -1.480000000E+00 -1.480000000E+00 -1.480000000E+00 -1.480000000E+00
 -1.480000000E+00 -1.480000000E+00 -1.480000000E+00 -1.480000000E+00 -1.480000000E+00
 -1.480000000E+00 -1.480000000E+00 -1.480000000E+00 -1.480000000E+00 -1.480000000E+00
 -1.480000000E+00 -1.480000000E+00 -1.480000000E+00 -1.480000000E+00 -1.480000000E+00
 -1.480000000E+00 -1.480000000E+00 -1.480000000E+00 -1.480000000E+00 -1.480000000E+00
 -1.480000000E+00 -1.480000000E+00 -1.480000000E+00 -1.480000000E+00 -1.480000000E+00
 -1.480000000E+00 -1.480000000E+00
 -5.304864125E+01 -6.312586935E+01 -3.532323406E+01 -5.983298841E+01 -2.439883759E+01
 -5.815879853E+01 -1.540736242E+01 -5.730099308E+01 -8.491070448E+00 -5.666398624E+01
 -3.887545759E+00 -5.622933548E+01 -1.255487160E+00 -5.625272425E+01 3.179605174E-02
 -5.607497892E+01 3.276453318E-01 -5.544002826E+01 2.192621773E-01 -5.569463046E+01
 -7.477756947E-02 1.078605427E-01 1.414607944E-01 -5.603896009E+01 4.576166972E-01
 -5.560986608E+01 1.228012070E+00 -5.475842904E+01 1.880896512E+00 -5.436580310E+01
 2.895103314E+00 -5.432108905E+01 3.685597339E+00 -5.424619633E+01 4.305406660E+00
 -5.405251743E+01 4.741428549E+00 -5.396952336E+01 5.764103942E+00 -5.411840417E+01
 7.790581981E+00 -5.433660886E+01 9.697629124E+00 -5.430038312E+01 1.106133807E+01
 -5.404378386E+01 1.230206601E+01 -5.413810373E+01 1.355029130E+01 -5.435290350E+01
 1.457712826E+01 -5.430067063E+01 1.553794960E+01 -5.423008320E+01 1.770667724E+01
 -5.448351572E+01 2.081545894E+01 -5.514684269E+01 2.267554977E+01 -5.743611648E+01
 2.348095236E+01 -6.098295503E+01 2.444758750E+01 -6.103371599E+01 2.581674528E+01
 -5.800005683E+01 2.722813188E+01 -5.524493150E+01 2.842671570E+01 -5.165497535E+01
 2.951920406E+01 -4.821436537E+01 3.073394728E+01 -4.533196887E+01 3.161521196E+01
 -4.454841494E+01 3.183016317E+01 -4.474131195E+01 3.169382073E+01 -4.442802622E+01
 3.093657877E+01 -4.531846427E+01 2.946116537E+01 -4.626314743E+01 3.006806417E+01
 -4.647590706E+01 3.282108382E+01 -4.718164961E+01 3.338934547E+01 -4.875343093E+01
 3.180936505E+01 -5.088521359E+01 3.045809883E+01 -5.220760458E+01 2.966511712E+01
 -5.364403707E+01 2.887059109E+01 -5.586093867E+01 2.816140749E+01 -5.851987435E+01
 2.729392857E+01 -6.189099484E+01 2.683177128E+01 -6.567776830E+01 2.668233988E+01
 -7.023066721E+01 2.644298198E+01 -7.532836742E+01 2.676174809E+01 -8.116950705E+01
 2.721819732E+01 -8.822568979E+01 2.783303397E+01 -9.600429950E+01 2.813613399E+01
 -1.036201847E+02 2.932184721E+01 -1.118930445E+02 3.079203378E+01 -1.193968257E+02
 3.216942623E+01 -1.274313682E+02 3.352020848E+01 -1.355805033E+02 3.440818411E+01
 -1.422515530E+02 3.487028848E+01 -1.483014590E+02 3.548701857E+01 -1.541947323E+02
 3.602428093E+01 -1.582112448E+02 3.660969429E+01 -1.611171976E+02 3.741576813E+01
 -1.656491405E+02 3.724097760E+01 -1.680297319E+02 3.667844046E+01 -1.708548997E+02
 3.513985607E+01 -1.726440300E+02 3.317416930E+01 -1.730070271E+02 2.884878362E+01
 -1.731735237E+02 2.147684585E+01 -1.708140300E+02 1.270725495E+01 -1.693509884E+02
 7.782433703E+00 -1.662092693E+02 4.091531343E+00 -1.633464077E+02 -1.047438788E+01
 -1.604866609E+02 -3.049981449E+01 -1.554923166E+02 -6.295667855E+01 -1.520859441E+02
 -9.414777272E+01 -1.465687252E+02 -9.815957229E+01 -1.396866345E+02 -9.983434356E+01
 -1.348886797E+02 -1.053187828E+02 -1.279326217E+02 -1.107142977E+02 -1.202817260E+02
 -1.154999768E+02 -1.142338565E+02 -1.201231634E+02 -1.085875548E+02 -1.251545791E+02
 -1.041026595E+02 -1.270895407E+02 -1.000440966E+02 -1.245026295E+02 -9.598562108E+01
 -1.219569563E+02 -9.197422746E+01 -1.149702188E+02 -8.804253186E+01 -8.076476318E+01
 -8.452449267E+01 -3.318155123E+01 -8.105636190E+01 4.528238262E+00 -7.793671706E+01
 7.823640401E+01 -7.533391639E+01 1.479793725E+02 -7.254919498E+01 1.747840997E+02
 -7.028309968E+01 1.891895704E+02 -6.836740830E+01 1.709255157E+02 -6.638388872E+01
 1.385246100E+02 -6.457886278E+01 1.128697565E+02 -6.265707160E+01 8.513361563E+01
 -6.048055944E+01 5.432478961E+01 -5.822044426E+01 3.980505939E+01 -5.569111991E+01
 4.169387830E+01 -5.206048396E+01 3.273811239E+01 -4.775894715E+01 1.446449003E+01
 -4.340793584E+01 2.616051407E+00 -3.345535458E+01 -7.455026657E-01 -2.499861708E+01
 -3.432217996E+00 -1.550339403E+01 5.035346156E-03 5.244449236E-03 5.439752359E-03
 4.801674598E-03 5.624721989E-03 4.549066068E-03 5.824802679E-03 4.296407237E-03
 6.002568659E-03 4.040378838E-03 6.187612669E-03 3.784460911E-03 6.384054567E-03
 3.525775769E-03 6.556237637E-03 3.267173465E-03 6.742412848E-03 3.006347121E-03
 6.918019617E-03 2.745557479E-03 7.089276882E-03 2.483099124E-03 7.273940349E-03
 2.220566321E-03 7.433087916E-03 1.826010843E-03 1.956790683E-03 1.692843980E-03
 7.603197323E-03 1.428070251E-03 7.771790941E-03 1.162973316E-03 7.926554115E-03
 8.972993112E-04 8.095837804E-03 6.312134277E-04 8.239213476E-03 3.649725705E-04
 8.392169418E-03 9.770985474E-05 8.686051235E-03 8.676153863E-03 8.549044669E-03
 -1.689302242E-04 8.837229001E-03 -4.369878427E-04 8.963621731E-03 -7.044315212E-04
 9.097471579E-03 -9.435154950E-04 9.233117012E-03 -1.126706197E-03 9.351210836E-03
 -1.265520144E-03 9.480346191E-03 -1.411784234E-03 9.586425274E-03 -1.569553440E-03
 9.700535164E-03 -1.709975489E-03 9.804971755E-03 -1.853578514E-03 9.901325116E-03
 -2.008789548E-03 1.000420524E-02 -2.152812372E-03 1.008602213E-02 -2.293367064E-03
 1.017538497E-02 -1.023620160E-02 -1.009601653E-02 -9.942056503E-03 -2.444765649E-03
 1.024460295E-02 -1.036584229E-02 -9.769702834E-03 -2.592157994E-03 1.031694432E-02
 -1.048042139E-02 -9.596866186E-03 -2.730014744E-03 1.037851622E-02 -1.061068829E-02
 -9.415395025E-03 -2.878110666E-03 1.042962275E-02 -1.071450939E-02 -9.233738097E-03
 -3.027745461E-03 1.048018825E-02 -1.082424910E-02 -9.044216858E-03 -3.163106616E-03
 1.051152495E-02 -1.094632845E-02 -8.854478004E-03 -3.308311266E-03 1.054700256E-02
 -1.103868636E-02 -8.657717082E-03 -3.459740619E-03 1.056223715E-02 -1.114467200E-02
 -8.460560658E-03 -3.592165200E-03 1.056156869E-02 -1.124006357E-02 -8.257287554E-03
 -3.734538319E-03 1.054447846E-02 -1.132706668E-02 -8.053351842E-03 -3.888150106E-03
 1.022923945E-02 -1.142780891E-02 -7.767464318E-03 -7.844229517E-03 -7.634072566E-03
 -4.019417138E-03 7.694495260E-03 -1.149895532E-02 -7.419704289E-03 -4.157134883E-03
 5.445126497E-03 -1.157901397E-02 -7.203838456E-03 -4.308942936E-03 5.406548613E-03
 -1.165924487E-02 -6.985190040E-03 -4.442542190E-03 5.635393936E-03 -1.171988408E-02
 -6.763747445E-03 -4.575966919E-03 6.054075771E-03 -1.179383465E-02 -6.541334048E-03
 -4.723363688E-03 1.742626151E-02 -1.183787138E-02 -6.315312985E-03 -4.861282547E-03
 2.262347552E-02 -1.188618778E-02 -6.088751820E-03 -4.989554878E-03 1.504420125E-02
 -1.193878922E-02 -5.859248063E-03 -5.130746831E-03 1.318821148E-02 -1.199612404E-02
 -1.196866842E-02 -1.196303133E-02 -5.628217461E-03 -5.274897784E-03 1.283623387E-02
 -1.200030343E-02 -5.422882506E-03 1.263463798E-02 -1.200472327E-02 1.255196774E-02
 -1.199196594E-02 1.248090618E-02 -1.196215518E-02 1.246934469E-02 -1.173304184E-02
 1.236324256E-02 -8.793280001E-03 1.235984016E-02 -6.075431102E-03 1.224555770E-02
 -6.039453322E-03 1.222663478E-02 -6.339769045E-03 1.222047319E-02 -6.960727896E-03
 1.215067102E-02 -2.008570030E-02 1.220147516E-02 -2.594375823E-02 1.209849367E-02
 -1.710115284E-02 1.208912974E-02 -1.503768440E-02 1.213866195E-02 -1.470701901E-02
 1.205624590E-02 -1.457916185E-02 1.212000395E-02 -1.451461834E-02 1.203912690E-02
 -1.439726533E-02 1.201203599E-02 -1.434348521E-02 1.211469200E-02 -1.424750874E-02
 1.201037199E-02 -1.421772491E-02 1.206221976E-02 -1.414559794E-02 1.207096682E-02
 -1.411111468E-02 1.202120248E-02 -1.413364735E-02 1.216400627E-02 -1.409091654E-02
 1.206735600E-02 -1.413089804E-02 1.210703747E-02 -1.408836825E-02 1.215612222E-02
 -1.413255794E-02 1.221473864E-02 -1.411523753E-02 1.229330834E-02 -1.410646322E-02
 1.235847586E-02 -1.417561404E-02 1.245194224E-02 -1.412395716E-02 1.254517211E-02
 -1.419792656E-02 1.267390020E-02 -1.412066928E-02 1.280423443E-02 -1.410914060E-02
 1.296502994E-02 -1.417778051E-02 1.312363621E-02 -1.419178383E-02 1.341145035E-02
 1.331388162E-02 1.350809524E-02 -1.411342873E-02 1.372559452E-02 -1.420501265E-02
 1.395703467E-02 -1.411015805E-02 1.420582363E-02 -1.409968037E-02 1.448444010E-02
 -1.422107367E-02 1.476935392E-02 -1.413107640E-02 1.510897981E-02 -1.424946904E-02
 1.543638533E-02 -1.420092852E-02 1.585102883E-02 -1.418751164E-02 1.621678235E-02
 -1.436854460E-02 1.673279210E-02 -1.425832645E-02 1.754608232E-02 -1.438382581E-02
 1.718692051E-02 -1.444763832E-02 1.734283177E-02 -1.440066186E-02 1.833080845E-02
 -1.465904589E-02 1.811974135E-02 -1.451666850E-02 1.813004771E-02 -1.461460698E-02
 1.883976519E-02 -1.490895544E-02 1.888666241E-02 -1.480864225E-02 1.868132216E-02
 -1.509638769E-02 -1.531227499E-02 -1.518199694E-02 1.896207318E-02 -1.558690544E-02
 1.909674659E-02 -1.578940849E-02 1.883523296E-02 -1.612910371E-02 1.868102404E-02
 -1.639895942E-02 1.848892008E-02 -1.683166362E-02 1.835785504E-02 -1.718128547E-02
 1.752703071E-02 -1.772682206E-02 1.615249619E-02 -1.820734112E-02 1.698730307E-02
 -1.889792045E-02 1.543017169E-02 -1.948974951E-02 9.933923689E-03 -2.061038418E-02
 -2.033400564E-02 1.083145788E-02 -2.107576007E-02 1.315513188E-02 -2.193291636E-02
 1.028593816E-02 -2.264956365E-02 7.536594916E-03 -2.307247164E-02 -2.982873967E-03
 -2.341658360E-02 -1.885119608E-02 -2.339509140E-02 -2.107785890E-02 -2.359617555E-02
 -1.465963761E-02 -2.320160571E-02 -1.630446921E-02 -2.313199912E-02 -2.143907748E-02
 -2.189192887E-02 -2.156996316E-02
 2 1
 1 3
 3 5
 5 7
 7 9
 9 11
 11 13
 13 15
 15 17
 17 19
 19 23
 23 22
 22 21
 21 25
 25 27
 27 29
 29 31
 31 33
 33 35
 35 37
 37 39
 39 41
 41 43
 43 45
 45 47
 47 49
 49 51
 51 53
 53 55
 55 57
 57 59
 59 61
 61 63
 63 65
 65 67
 67 69
 69 71
 71 73
 73 75
 75 77
 77 79
 79 81
 81 83
 83 85
 85 87
 87 89
 89 91
 91 93
 93 95
 95 97
 97 99
 99 101
 101 103
 103 105
 105 107
 107 109
 109 111
 111 113
 113 115
 115 117
 117 119
 119 121
 121 123
 123 125
 125 127
 127 129
 129 131
 131 133
 133 135
 135 137
 137 139
 139 141
 141 143
 143 145
 145 147
 147 149
 149 151
 151 153
 153 155
 155 157
 157 159
 159 161
 161 163
 163 165
 165 167
 167 169
 169 171
 171 173
 173 175
 175 177
 177 179
 179 181
 181 183
 183 185
 185 187
 187 189
 189 191
 191 193
 193 195
 195 197
 197 199
 199 201
 201 203
 203 205
 205 207
 207 209
 209 211
 211 213
 213 215
 215 217
 217 219
 219 221
 221 222
 222 220
 220 218
 218 216
 216 214
 214 212
 212 210
 210 208
 208 206
 206 204
 204 202
 202 200
 200 198
 198 196
 196 194
 194 192
 192 190
 190 188
 188 186
 186 184
 184 182
 182 180
 180 178
 178 176
 176 174
 174 172
 172 170
 170 168
 168 166
 166 164
 164 162
 162 160
 160 158
 158 156
 156 154
 154 152
 152 150
 150 148
 148 146
 146 144
 144 142
 142 140
 140 138
 138 136
 136 134
 134 132
 132 130
 130 128
 128 126
 126 124
 124 122
 122 120
 120 118
 118 116
 116 114
 114 112
 112 110
 110 108
 108 106
 106 104
 104 102
 102 100
 100 98
 98 96
 96 94
 94 92
 92 90
 90 88
 88 86
 86 84
 84 82
 82 80
 80 78
 78 76
 76 74
 74 72
 72 70
 70 68
 68 66
 66 64
 64 62
 62 60
 60 58
 58 56
 56 54
 54 52
 52 50
 50 48
 48 46
 46 44
 44 42
 42 40
 40 38
 38 36
 36 34
 34 32
 32 30
 30 28
 28 26
 26 24
 24 20
 20 18
 18 16
 16 14
 14 12
 12 10
 10 8
 8 6
 6 4
 4 2
 250 248
 248 249
 249 246
 246 244
 244 242
 242 240
 240 238
 238 236
 236 234
 234 232
 232 230
 230 228
 228 226
 226 223
 223 224
 224 225
 225 227
 227 229
 229 231
 231 233
 233 235
 235 237
 237 239
 239 241
 241 243