TITLE     = "Fluent Common Fluid Files Data"
VARIABLES = "X"
"Y"
"Static Pressure"
DATASETAUXDATA Common.DensityVar="7"
DATASETAUXDATA Common.PressureVar="15"
DATASETAUXDATA Common.TemperatureVar="17"
DATASETAUXDATA Common.TurbulentDynamicViscosityVar="12"
DATASETAUXDATA Common.TurbulentKineticEnergyVar="10"
DATASETAUXDATA Common.UVar="18"
DATASETAUXDATA Common.VectorVarsAreVelocity="True"
DATASETAUXDATA Common.ViscosityVar="11"
DATASETAUXDATA Common.VVar="19"
DATASETAUXDATA Common.WVar="20"
ZONE T="Slice: Y=-1.48"
 STRANDID=7, SOLUTIONTIME=0
 Nodes=542, Elements=542, ZONETYPE=FELineSeg
 DATAPACKING=BLOCK
 DT=(DOUBLE DOUBLE DOUBLE )
 2.539488920E+00 2.539490630E+00 2.537840056E+00 2.539491884E+00 2.536119338E+00
 2.539493149E+00 2.534402100E+00 2.539494426E+00 2.532676862E+00 2.539495196E+00
 2.530950816E+00 2.539495432E+00 2.529226401E+00 2.539495685E+00 2.527502732E+00
 2.539495954E+00 2.525773750E+00 2.539496239E+00 2.524045487E+00 2.539496541E+00
 2.520604533E+00 2.521809178E+00 2.522318042E+00 2.539496859E+00 2.518901075E+00
 2.539497290E+00 2.517187445E+00 2.539497954E+00 2.515473960E+00 2.539499068E+00
 2.513757641E+00 2.539500193E+00 2.512042153E+00 2.539501331E+00 2.510336256E+00
 2.539502481E+00 2.508629984E+00 2.539503644E+00 2.506928039E+00 2.539504815E+00
 2.505216178E+00 2.539505994E+00 2.503496960E+00 2.539507184E+00 2.501780267E+00
 2.539508386E+00 2.500065726E+00 2.539509600E+00 2.498349364E+00 2.539510545E+00
 2.496634636E+00 2.539510628E+00 2.494921250E+00 2.539510729E+00 2.493209613E+00
 2.539510848E+00 2.491477825E+00 2.539510984E+00 2.489741442E+00 2.539511138E+00
 2.488016223E+00 2.539511309E+00 2.486296220E+00 2.539510933E+00 2.484572761E+00
 2.537695485E+00 2.482838752E+00 2.535885260E+00 2.481104740E+00 2.534063549E+00
 2.479371634E+00 2.532233819E+00 2.477635556E+00 2.530398053E+00 2.475896464E+00
 2.528560134E+00 2.474155395E+00 2.526708976E+00 2.472415412E+00 2.524865147E+00
 2.470676029E+00 2.523015775E+00 2.468936150E+00 2.521159418E+00 2.467190659E+00
 2.519306027E+00 2.465418062E+00 2.517458520E+00 2.463642358E+00 2.515614204E+00
 2.461878849E+00 2.513774666E+00 2.460117421E+00 2.511945405E+00 2.458349920E+00
 2.510108712E+00 2.456578956E+00 2.508282723E+00 2.454799533E+00 2.506465142E+00
 2.453007475E+00 2.504653158E+00 2.451214949E+00 2.502846969E+00 2.449420163E+00
 2.501043711E+00 2.447627954E+00 2.499243492E+00 2.445829458E+00 2.497443655E+00
 2.444018834E+00 2.495644869E+00 2.442196989E+00 2.493846017E+00 2.440365057E+00
 2.492045452E+00 2.438531200E+00 2.490244531E+00 2.436683723E+00 2.488441339E+00
 2.434835916E+00 2.486633844E+00 2.432974724E+00 2.484826020E+00 2.431110979E+00
 2.483012915E+00 2.429237082E+00 2.481199266E+00 2.427352983E+00 2.479381085E+00
 2.425461603E+00 2.477557016E+00 2.423553260E+00 2.475733386E+00 2.421637160E+00
 2.473903383E+00 2.419707839E+00 2.472077143E+00 2.417769982E+00 2.470244275E+00
 2.415823781E+00 2.468410798E+00 2.413862784E+00 2.466580223E+00 2.411880458E+00
 2.464743738E+00 2.409888100E+00 2.462912000E+00 2.407886951E+00 2.461079699E+00
 2.406724506E+00 2.459251062E+00 2.405895647E+00 2.457420987E+00 2.403918405E+00
 2.455589554E+00 2.401921045E+00 2.453764414E+00 2.399926438E+00 2.451934385E+00
 2.397921299E+00 2.450108880E+00 2.397364602E+00 2.448287516E+00 2.396811826E+00
 2.446465533E+00 2.396260047E+00 2.444650290E+00 2.395705726E+00 2.442845206E+00
 2.395150744E+00 2.441042158E+00 2.394599044E+00 2.439242386E+00 2.394053369E+00
 2.437449498E+00 2.393515634E+00 2.435655226E+00 2.392989480E+00 2.433861302E+00
 2.392479059E+00 2.432068847E+00 2.391988689E+00 2.430280230E+00 2.391532989E+00
 2.428496960E+00 2.391136506E+00 2.426713459E+00 2.390800005E+00 2.424941002E+00
 2.390550620E+00 2.423167827E+00 2.390463314E+00 2.421400519E+00 2.390477037E+00
 2.419640258E+00 2.390571654E+00 2.417885838E+00 2.390799729E+00 2.416143645E+00
 2.391170019E+00 2.414402572E+00 2.391618421E+00 2.412677023E+00 2.392120050E+00
 2.410959844E+00 2.392683928E+00 2.409253638E+00 2.393283123E+00 2.407569003E+00
 2.393869978E+00 2.405888403E+00 2.394457459E+00 2.404231251E+00 2.395083211E+00
 2.402594609E+00 2.395754271E+00 2.400981112E+00 2.396452136E+00 2.399415178E+00
 2.397156614E+00 2.397859968E+00 -7.036664825E+01 -6.894029162E+01 -6.751315262E+01
 -7.211550460E+01 -6.604412649E+01 -7.384855605E+01 -6.454525715E+01 -7.550780473E+01
 -6.304682442E+01 -7.714527015E+01 -6.148520360E+01 -7.871043240E+01 -5.992200568E+01
 -8.024709719E+01 -5.833058652E+01 -8.171422814E+01 -5.670570140E+01 -8.314649190E+01
 -5.507980586E+01 -8.451088158E+01 -5.340480552E+01 -8.583534942E+01 -5.172322470E+01
 -8.709251465E+01 -5.002364723E+01 -8.887470345E+01 -8.830667781E+01 -8.945309681E+01
 -4.828926837E+01 -9.055382971E+01 -4.655484770E+01 -9.158588643E+01 -4.478259645E+01
 -9.257169526E+01 -4.300210608E+01 -9.348535069E+01 -4.121527243E+01 -9.435483646E+01
 -3.938381010E+01 -9.514643218E+01 -3.570563212E+01 -3.583958260E+01 -3.755984458E+01
 -9.589888167E+01 -3.384617289E+01 -9.656540704E+01 -3.197299673E+01 -9.720009207E+01
 -3.008015596E+01 -9.773865028E+01 -2.818808140E+01 -9.803045254E+01 -2.626839904E+01
 -9.831542939E+01 -2.435001374E+01 -9.854130190E+01 -2.241572493E+01 -9.876724898E+01
 -2.047447237E+01 -9.899314389E+01 -1.852401768E+01 -9.916603655E+01 -1.656689924E+01
 -9.932640808E+01 -1.460023474E+01 -9.948694384E+01 -1.263389855E+01 -9.961047711E+01
 -1.065437767E+01 -6.894494642E+01 -7.036664838E+01 -7.205204376E+01 -9.970616356E+01
 -8.680359625E+00 -6.752247578E+01 -7.372149922E+01 -9.980176676E+01 -6.691826263E+00
 -6.605879760E+01 -7.532778896E+01 -9.987306839E+01 -4.711762867E+00 -6.456483033E+01
 -7.690465340E+01 -9.990477802E+01 -2.718790464E+00 -6.307134958E+01 -7.842819516E+01
 -9.993651513E+01 -7.353545071E-01 -6.151589982E+01 -7.990826651E+01 -9.995236878E+01
 1.258292735E+00 -5.995786665E+01 -8.134540295E+01 -9.992065567E+01 3.241743657E+00
 -5.837321103E+01 -8.272497228E+01 -9.988891951E+01 5.233928302E+00 -5.675363916E+01
 -8.407203196E+01 -9.984968391E+01 7.213170066E+00 -5.513320014E+01 -8.534781282E+01
 -9.975395621E+01 9.201848109E+00 -5.346556284E+01 -8.660109498E+01 -9.965836702E+01
 1.117386875E+01 -5.178956882E+01 -8.819252528E+01 -8.777027744E+01 -8.892607277E+01
 -9.956264214E+01 1.315392759E+01 -5.009782264E+01 -8.998636463E+01 -9.940669091E+01
 1.511683236E+01 -4.836908003E+01 -9.104099856E+01 -9.924615791E+01 1.708355435E+01
 -4.664058828E+01 -9.199058870E+01 -9.908573904E+01 1.903646113E+01 -4.487652671E+01
 -9.293996040E+01 -9.887997051E+01 2.098570998E+01 -4.310198364E+01 -9.377798406E+01
 -9.865406797E+01 2.292736558E+01 -4.132367263E+01 -9.461547466E+01 -9.842805172E+01
 2.485645024E+01 -3.949807232E+01 -9.534415653E+01 -9.817594343E+01 2.677496441E+01
 -3.768046547E+01 -9.606879024E+01 -9.788396624E+01 2.868776718E+01 -3.398163904E+01
 -3.551941687E+01 -3.583486014E+01 -9.668534237E+01 -9.759211376E+01 3.057925792E+01
 -3.211723797E+01 -9.729647354E+01 3.246797572E+01 -3.023040341E+01 3.433725241E+01
 -2.834505094E+01 3.619733474E+01 -2.643397401E+01 3.637868822E+01 -2.452204724E+01
 3.804205082E+01 -2.259636295E+01 3.986552280E+01 -2.066118317E+01 4.169089530E+01
 -1.871773544E+01 4.347325679E+01 -1.676881303E+01 4.525428149E+01 -1.480873667E+01
 4.701451935E+01 -1.285043790E+01 4.874828425E+01 -1.087755374E+01 5.047993113E+01
 -8.911352941E+00 5.216938782E+01 -6.928897582E+00 5.385115329E+01 -4.956135820E+00
 5.551177711E+01 -2.970200706E+00 5.713724583E+01 -9.934911340E-01 5.876284522E+01
 9.934855881E-01 6.033821900E+01 2.970194971E+00 6.190156327E+01 4.956128941E+00
 6.344661966E+01 6.928889936E+00 6.494494716E+01 8.911347017E+00 6.644422697E+01
 1.087754939E+01 6.789515435E+01 1.285043418E+01 6.932240209E+01 1.480873341E+01
 7.074571310E+01 1.676880972E+01 7.245922916E+01 1.871773064E+01 7.417322070E+01
 2.066117777E+01 7.579605294E+01 2.259635905E+01 7.741551588E+01 2.452204364E+01
 7.894691658E+01 2.643397117E+01 8.046668361E+01 2.834504868E+01 8.190297772E+01
 3.023040021E+01 8.331950123E+01 3.211723508E+01 8.465621406E+01 3.398163818E+01
 8.596613305E+01 3.551945215E+01 8.719897315E+01 3.583485943E+01 8.895855254E+01
 8.839981565E+01 8.952544483E+01 3.768046361E+01 9.061410656E+01 3.949806964E+01
 9.162904258E+01 4.132367181E+01 9.260405346E+01 4.310198396E+01 9.350436542E+01
 4.487652682E+01 9.436433835E+01 4.664058812E+01 9.514642677E+01 4.836907976E+01
 9.589065773E+01 5.009782235E+01 9.655154314E+01 5.178957053E+01 9.717930698E+01
 5.346556451E+01 9.771608974E+01 5.513319973E+01 9.800879837E+01 5.675363737E+01
 9.829935998E+01 5.837321001E+01 9.852593648E+01 5.995786579E+01 9.875258577E+01
 6.151589876E+01 9.897918168E+01 6.307134946E+01 9.915662949E+01 6.456483088E+01
 9.931750372E+01 6.605879805E+01 9.947853574E+01 6.752247574E+01 9.960576768E+01
 6.894494651E+01 7.205120393E+01 7.036664822E+01 9.970175612E+01 7.371982128E+01
 9.979765382E+01 7.532541462E+01 9.987179982E+01 7.690148997E+01 9.990360606E+01
 7.842449004E+01 9.993544238E+01 7.990382319E+01 9.995334046E+01 8.134057623E+01
 9.992153144E+01 8.271946064E+01 9.988969649E+01 8.406629810E+01 9.985171559E+01
 8.534144639E+01 9.975568372E+01 8.659468276E+01 9.965979636E+01 8.818364215E+01
 8.776328905E+01 9.956377801E+01 8.891920998E+01 9.940809382E+01 8.997898232E+01
 9.924705975E+01 9.103391759E+01 9.908613941E+01 9.198304732E+01 9.887982798E+01
 9.293201085E+01 9.865321962E+01 9.377050691E+01 9.842649665E+01 9.460763270E+01
 9.817301599E+01 9.533697634E+01 9.788012477E+01 9.606125155E+01 9.758736121E+01
 9.667868785E+01 9.728970090E+01
 -1.480000000E+00 -1.480000000E+00 -1.480000000E+00 -1.480000000E+00 -1.480000000E+00
 -1.480000000E+00 -1.480000000E+00 -1.480000000E+00 -1.480000000E+00 -1.480000000E+00
 -1.480000000E+00 -1.480000000E+00 -1.480000000E+00 -1.480000000E+00 -1.480000000E+00
 -1.480000000E+00 -1.480000000E+00 -1.480000000E+00 -1.480000000E+00 -1.480000000E+00
 -1.480000000E+00 -1.480000000E+00 -1.480000000E+00 -1.480000000E+00 -1.480000000E+00
 -1.480000000E+00 -1.480000000E+00 -1.480000000E+00 -1.480000000E+00 -1.480000000E+00
 -1.480000000E+00 -1.480000000E+00 -1.480000000E+00 -1.480000000E+00 -1.480000000E+00
 -1.480000000E+00 -1.480000000E+00 -1.480000000E+00 -1.480000000E+00 -1.480000000E+00
 -1.480000000E+00 -1.480000000E+00 -1.480000000E+00 -1.480000000E+00 -1.480000000E+00
 -1.480000000E+00 -1.480000000E+00 -1.480000000E+00 -1.480000000E+00 -1.480000000E+00
 -1.480000000E+00 -1.480000000E+00 -1.480000000E+00 -1.480000000E+00 -1.480000000E+00
 -1.480000000E+00 -1.480000000E+00 -1.480000000E+00 -1.480000000E+00 -1.480000000E+00
 -1.480000000E+00 -1.480000000E+00 -1.480000000E+00 -1.480000000E+00 -1.480000000E+00
 -1.480000000E+00 -1.480000000E+00 -1.480000000E+00 -1.480000000E+00 -1.480000000E+00
 -1.480000000E+00 -1.480000000E+00 -1.480000000E+00 -1.480000000E+00 -1.480000000E+00
 -1.480000000E+00 -1.480000000E+00 -1.480000000E+00 -1.480000000E+00 -1.480000000E+00
 -1.480000000E+00 -1.480000000E+00 -1.480000000E+00 -1.480000000E+00 -1.480000000E+00
 -1.480000000E+00 -1.480000000E+00 -1.480000000E+00 -1.480000000E+00 -1.480000000E+00
 -1.480000000E+00 -1.480000000E+00 -1.480000000E+00 -1.480000000E+00 -1.480000000E+00
 -1.480000000E+00 -1.480000000E+00 -1.480000000E+00 -1.480000000E+00 -1.480000000E+00
 -1.480000000E+00 -1.480000000E+00 -1.480000000E+00 -1.480000000E+00 -1.480000000E+00
 -1.480000000E+00 -1.480000000E+00 -1.480000000E+00 -1.480000000E+00 -1.480000000E+00
 -1.480000000E+00 -1.480000000E+00 -1.480000000E+00 -1.480000000E+00 -1.480000000E+00
 -1.480000000E+00 -1.480000000E+00 -1.480000000E+00 -1.480000000E+00 -1.480000000E+00
 -1.480000000E+00 -1.480000000E+00 -1.480000000E+00 -1.480000000E+00 -1.480000000E+00
 -1.480000000E+00 -1.480000000E+00 -1.480000000E+00 -1.480000000E+00 -1.480000000E+00
 -1.480000000E+00 -1.480000000E+00 -1.480000000E+00 -1.480000000E+00 -1.480000000E+00
 -1.480000000E+00 -1.480000000E+00 -1.480000000E+00 -1.480000000E+00 -1.480000000E+00
 -1.480000000E+00 -1.480000000E+00 -1.480000000E+00 -1.480000000E+00 -1.480000000E+00
 -1.480000000E+00 -1.480000000E+00 -1.480000000E+00 -1.480000000E+00 -1.480000000E+00
 -1.480000000E+00 -1.480000000E+00 -1.480000000E+00 -1.480000000E+00 -1.480000000E+00
 -1.480000000E+00 -1.480000000E+00 -1.480000000E+00 -1.480000000E+00 -1.480000000E+00
 -1.480000000E+00 -1.480000000E+00 -1.480000000E+00 -1.480000000E+00 -1.480000000E+00
 -1.480000000E+00 -1.480000000E+00 -1.480000000E+00 -1.480000000E+00 -1.480000000E+00
 -1.480000000E+00 -1.480000000E+00 -1.480000000E+00 -1.480000000E+00 -1.480000000E+00
 -1.480000000E+00 -1.480000000E+00 -1.480000000E+00 -1.480000000E+00 -1.480000000E+00
 -1.480000000E+00 -1.480000000E+00 -1.480000000E+00 -1.480000000E+00 -1.480000000E+00
 -1.480000000E+00 -1.480000000E+00 -1.480000000E+00 -1.480000000E+00 -1.480000000E+00
 -1.480000000E+00 -1.480000000E+00 -1.480000000E+00 -1.480000000E+00 -1.480000000E+00
 -1.480000000E+00 -1.480000000E+00 -1.480000000E+00 -1.480000000E+00 -1.480000000E+00
 -1.480000000E+00 -1.480000000E+00 -1.480000000E+00 -1.480000000E+00 -1.480000000E+00
 -1.480000000E+00 -1.480000000E+00 -1.480000000E+00 -1.480000000E+00 -1.480000000E+00
 -1.480000000E+00 -1.480000000E+00 -1.480000000E+00 -1.480000000E+00 -1.480000000E+00
 -1.480000000E+00 -1.480000000E+00 -1.480000000E+00 -1.480000000E+00 -1.480000000E+00
 -1.480000000E+00 -1.480000000E+00 -1.480000000E+00 -1.480000000E+00 -1.480000000E+00
 -1.480000000E+00 -1.480000000E+00 -1.480000000E+00 -1.480000000E+00 -1.480000000E+00
 -1.480000000E+00 -1.480000000E+00 -1.480000000E+00 -1.480000000E+00 -1.480000000E+00
 -1.480000000E+00 -1.480000000E+00 -1.480000000E+00 -1.480000000E+00 -1.480000000E+00
 -1.480000000E+00 -1.480000000E+00 -1.480000000E+00 -1.480000000E+00 -1.480000000E+00
 -1.480000000E+00 -1.480000000E+00 -1.480000000E+00 -1.480000000E+00 -1.480000000E+00
 -1.480000000E+00 -1.480000000E+00 -1.480000000E+00 -1.480000000E+00 -1.480000000E+00
 -1.480000000E+00 -1.480000000E+00 -1.480000000E+00 -1.480000000E+00 -1.480000000E+00
 -1.480000000E+00 -1.480000000E+00 -1.480000000E+00 -1.480000000E+00 -1.480000000E+00
 -1.480000000E+00 -1.480000000E+00 -1.480000000E+00 -1.480000000E+00 -1.480000000E+00
 -1.480000000E+00 -1.480000000E+00 -1.480000000E+00 -1.480000000E+00 -1.480000000E+00
 -1.480000000E+00 -1.480000000E+00 -1.480000000E+00 -1.480000000E+00 -1.480000000E+00
 -1.480000000E+00 -1.480000000E+00 -1.480000000E+00 -1.480000000E+00 -1.480000000E+00
 -1.480000000E+00 -1.480000000E+00 -1.480000000E+00 -1.480000000E+00 -1.480000000E+00
 -1.480000000E+00 -1.480000000E+00 -1.480000000E+00 -1.480000000E+00 -1.480000000E+00
 -1.480000000E+00 -1.480000000E+00 -1.480000000E+00 -1.480000000E+00 -1.480000000E+00
 -1.480000000E+00 -1.480000000E+00 -1.480000000E+00 -1.480000000E+00 -1.480000000E+00
 -1.480000000E+00 -1.480000000E+00 -1.480000000E+00 -1.480000000E+00 -1.480000000E+00
 -1.480000000E+00 -1.480000000E+00 -1.480000000E+00 -1.480000000E+00 -1.480000000E+00
 -1.480000000E+00 -1.480000000E+00 -1.480000000E+00 -1.480000000E+00 -1.480000000E+00
 -1.480000000E+00 -1.480000000E+00 -1.480000000E+00 -1.480000000E+00 -1.480000000E+00
 -1.480000000E+00 -1.480000000E+00 -1.480000000E+00 -1.480000000E+00 -1.480000000E+00
 -1.480000000E+00 -1.480000000E+00 -1.480000000E+00 -1.480000000E+00 -1.480000000E+00
 -1.480000000E+00 -1.480000000E+00 -1.480000000E+00 -1.480000000E+00 -1.480000000E+00
 -1.480000000E+00 -1.480000000E+00 -1.480000000E+00 -1.480000000E+00 -1.480000000E+00
 -1.480000000E+00 -1.480000000E+00 -1.480000000E+00 -1.480000000E+00 -1.480000000E+00
 -1.480000000E+00 -1.480000000E+00 -1.480000000E+00 -1.480000000E+00 -1.480000000E+00
 -1.480000000E+00 -1.480000000E+00 -1.480000000E+00 -1.480000000E+00 -1.480000000E+00
 -1.480000000E+00 -1.480000000E+00 -1.480000000E+00 -1.480000000E+00 -1.480000000E+00
 -1.480000000E+00 -1.480000000E+00 -1.480000000E+00 -1.480000000E+00 -1.480000000E+00
 -1.480000000E+00 -1.480000000E+00 -1.480000000E+00 -1.480000000E+00 -1.480000000E+00
 -1.480000000E+00 -1.480000000E+00 -1.480000000E+00 -1.480000000E+00 -1.480000000E+00
 -1.480000000E+00 -1.480000000E+00 -1.480000000E+00 -1.480000000E+00 -1.480000000E+00
 -1.480000000E+00 -1.480000000E+00 -1.480000000E+00 -1.480000000E+00 -1.480000000E+00
 -1.480000000E+00 -1.480000000E+00 -1.480000000E+00 -1.480000000E+00 -1.480000000E+00
 -1.480000000E+00 -1.480000000E+00 -1.480000000E+00 -1.480000000E+00 -1.480000000E+00
 -1.480000000E+00 -1.480000000E+00 -1.480000000E+00 -1.480000000E+00 -1.480000000E+00
 -1.480000000E+00 -1.480000000E+00 -1.480000000E+00 -1.480000000E+00 -1.480000000E+00
 -1.480000000E+00 -1.480000000E+00 -1.480000000E+00 -1.480000000E+00 -1.480000000E+00
 -1.480000000E+00 -1.480000000E+00 -1.480000000E+00 -1.480000000E+00 -1.480000000E+00
 -1.480000000E+00 -1.480000000E+00 -1.480000000E+00 -1.480000000E+00 -1.480000000E+00
 -1.480000000E+00 -1.480000000E+00 -1.480000000E+00 -1.480000000E+00 -1.480000000E+00
 -1.480000000E+00 -1.480000000E+00 -1.480000000E+00 -1.480000000E+00 -1.480000000E+00
 -1.480000000E+00 -1.480000000E+00 -1.480000000E+00 -1.480000000E+00 -1.480000000E+00
 -1.480000000E+00 -1.480000000E+00 -1.480000000E+00 -1.480000000E+00 -1.480000000E+00
 -1.480000000E+00 -1.480000000E+00 -1.480000000E+00 -1.480000000E+00 -1.480000000E+00
 -1.480000000E+00 -1.480000000E+00 -1.480000000E+00 -1.480000000E+00 -1.480000000E+00
 -1.480000000E+00 -1.480000000E+00 -1.480000000E+00 -1.480000000E+00 -1.480000000E+00
 -1.480000000E+00 -1.480000000E+00 -1.480000000E+00 -1.480000000E+00 -1.480000000E+00
 -1.480000000E+00 -1.480000000E+00 -1.480000000E+00 -1.480000000E+00 -1.480000000E+00
 -1.480000000E+00 -1.480000000E+00 -1.480000000E+00 -1.480000000E+00 -1.480000000E+00
 -1.480000000E+00 -1.480000000E+00 -1.480000000E+00 -1.480000000E+00 -1.480000000E+00
 -1.480000000E+00 -1.480000000E+00 -1.480000000E+00 -1.480000000E+00 -1.480000000E+00
 -1.480000000E+00 -1.480000000E+00 -1.480000000E+00 -1.480000000E+00 -1.480000000E+00
 -1.480000000E+00 -1.480000000E+00 -1.480000000E+00 -1.480000000E+00 -1.480000000E+00
 -1.480000000E+00 -1.480000000E+00 -1.480000000E+00 -1.480000000E+00 -1.480000000E+00
 -1.480000000E+00 -1.480000000E+00 -1.480000000E+00 -1.480000000E+00 -1.480000000E+00
 -1.480000000E+00 -1.480000000E+00 -1.480000000E+00 -1.480000000E+00 -1.480000000E+00
 -1.480000000E+00 -1.480000000E+00 -1.480000000E+00 -1.480000000E+00 -1.480000000E+00
 -1.480000000E+00 -1.480000000E+00 -1.480000000E+00 -1.480000000E+00 -1.480000000E+00
 -1.480000000E+00 -1.480000000E+00 -1.480000000E+00 -1.480000000E+00 -1.480000000E+00
 -1.480000000E+00 -1.480000000E+00 -1.480000000E+00 -1.480000000E+00 -1.480000000E+00
 -1.480000000E+00 -1.480000000E+00 -1.480000000E+00 -1.480000000E+00 -1.480000000E+00
 -1.480000000E+00 -1.480000000E+00 -1.480000000E+00 -1.480000000E+00 -1.480000000E+00
 -1.480000000E+00 -1.480000000E+00
 -1.837314648E+02 -1.784881595E+02 -1.996812473E+02 -1.795226625E+02 -2.144780567E+02
 -1.800643676E+02 -2.234280991E+02 -1.801241859E+02 -2.326471884E+02 -1.805119294E+02
 -2.427180408E+02 -1.796684655E+02 -2.544085294E+02 -1.798907520E+02 -2.677264904E+02
 -1.817860480E+02 -2.826927844E+02 -1.823400355E+02 -2.987055286E+02 -1.824882758E+02
 -3.337351648E+02 -3.210162703E+02 -3.156874921E+02 -1.831252892E+02 -3.514371664E+02
 -1.838180817E+02 -3.696501207E+02 -1.846382678E+02 -3.879454552E+02 -1.858941964E+02
 -4.052726358E+02 -1.870141143E+02 -4.228892138E+02 -1.876656924E+02 -4.405769531E+02
 -1.882783659E+02 -4.590436761E+02 -1.890840663E+02 -4.756640008E+02 -1.901315898E+02
 -4.887842306E+02 -1.914609593E+02 -5.013583809E+02 -1.927351845E+02 -5.146604177E+02
 -1.940537124E+02 -5.283647117E+02 -1.954470030E+02 -5.424537624E+02 -1.967911983E+02
 -5.573565608E+02 -1.978235756E+02 -5.730654140E+02 -1.987737836E+02 -5.857070774E+02
 -2.003646142E+02 -5.952621211E+02 -2.042391828E+02 -6.074226799E+02 -2.203251396E+02
 -6.220321752E+02 -2.710760957E+02 -6.361594784E+02 -1.635906768E+02 -6.494986327E+02
 2.858402497E+00 -6.630085327E+02 4.830750391E+01 -6.764975289E+02 8.937748299E+01
 -6.899061382E+02 1.157394124E+02 -7.035544851E+02 1.367458732E+02 -7.185967653E+02
 1.510932679E+02 -7.346512188E+02 1.599623189E+02 -7.508881292E+02 1.704697517E+02
 -7.689148306E+02 1.744731986E+02 -7.882967112E+02 1.761611143E+02 -8.022922830E+02
 1.766767515E+02 -8.117118894E+02 1.729016182E+02 -8.252785416E+02 1.676299179E+02
 -8.428439892E+02 1.599895079E+02 -8.601912347E+02 1.511424354E+02 -8.767387458E+02
 1.415654918E+02 -8.932889185E+02 1.310490777E+02 -9.100167440E+02 1.199315477E+02
 -9.275151816E+02 1.080642379E+02 -9.444753264E+02 9.567581953E+01 -9.615927874E+02
 8.180709377E+01 -9.792978038E+02 6.742573621E+01 -9.967248176E+02 5.248798099E+01
 -1.014172826E+03 3.562606160E+01 -1.031936852E+03 1.863204584E+01 -1.050169352E+03
 1.918072718E+00 -1.067366341E+03 -1.623186109E+01 -1.084759358E+03 -3.177537436E+01
 -1.102464894E+03 -4.759770545E+01 -1.120670406E+03 -6.323498218E+01 -1.140007611E+03
 -7.626359199E+01 -1.160625383E+03 -8.630628806E+01 -1.181961891E+03 -9.507760455E+01
 -1.204407554E+03 -1.002353384E+02 -1.227981817E+03 -1.031050641E+02 -1.252985386E+03
 -1.091566558E+02 -1.280542235E+03 -1.089687878E+02 -1.310575636E+03 -1.101727131E+02
 -1.344659298E+03 -1.095419470E+02 -1.383900018E+03 -1.045240041E+02 -1.432975504E+03
 -9.970533920E+01 -1.493668019E+03 -9.047794718E+01 -1.566967460E+03 -8.241134484E+01
 -1.619673894E+03 -7.041158989E+01 -1.658226420E+03 -5.950768358E+01 -1.778822257E+03
 -4.947782018E+01 -1.920337619E+03 -3.335690431E+01 -2.106164031E+03 -2.033485431E+01
 -2.256432146E+03 -4.561840182E+00 -2.310746348E+03 1.440966005E+01 -2.353444303E+03
 2.760737556E+01 -2.410684585E+03 4.294739888E+01 -2.465372880E+03 6.023587530E+01
 -2.508912576E+03 7.527442827E+01 -2.545504353E+03 8.947381468E+01 -2.589709066E+03
 1.031128786E+02 -2.650050535E+03 1.177854959E+02 -2.731329943E+03 1.323361056E+02
 -2.861095602E+03 1.462999242E+02 -3.069752131E+03 1.602050162E+02 -3.257054581E+03
 1.734627412E+02 -3.410439621E+03 1.864545466E+02 -3.689843822E+03 1.987296822E+02
 -3.216190434E+03 2.101943679E+02 -2.055181682E+03 2.221937543E+02 -1.246990977E+03
 2.334540343E+02 -5.700198405E+02 2.441448834E+02 4.604206071E+01 2.552103728E+02
 4.031882971E+02 2.661953600E+02 5.596926113E+02 2.778224198E+02 6.071818656E+02
 2.904421153E+02 6.125646678E+02 3.037585729E+02 6.041181391E+02 3.184392395E+02
 5.903515969E+02 3.355567320E+02 5.746077076E+02 3.552639172E+02 5.537469375E+02
 3.784289182E+02 5.325407092E+02 4.104946100E+02 5.146552545E+02 4.460966807E+02
 4.975638338E+02 4.756551838E+02 1.441730149E-02 1.446047883E-02 1.446656057E-02
 1.433372761E-02 1.443711670E-02 1.421875097E-02 1.438836851E-02 1.408417881E-02
 1.430493280E-02 1.394108993E-02 1.419403280E-02 1.377831222E-02 1.405908503E-02
 1.357579862E-02 1.389507228E-02 1.333994447E-02 1.370426042E-02 1.307887956E-02
 1.349142709E-02 1.279961248E-02 1.325491742E-02 1.250287793E-02 1.299514287E-02
 1.219193470E-02 1.272899559E-02 1.170179556E-02 1.186775812E-02 1.153279827E-02
 1.243286976E-02 1.118883235E-02 1.212166724E-02 1.083699511E-02 1.180195355E-02
 1.047925450E-02 1.145064944E-02 1.011560639E-02 1.111281289E-02 9.748591358E-03
 1.074518621E-02 9.377226228E-03 9.996027736E-03 1.002256948E-02 1.036344701E-02
 9.004960566E-03 9.594293043E-03 8.629577902E-03 9.226122273E-03 8.255154225E-03
 8.831836907E-03 7.935811431E-03 8.431252665E-03 7.697984426E-03 8.057965461E-03
 7.510687175E-03 7.654119558E-03 7.306617931E-03 7.297442761E-03 7.081237134E-03
 6.914956730E-03 6.882019425E-03 6.557608548E-03 6.681039110E-03 6.217238565E-03
 6.456865399E-03 5.858985583E-03 6.250249706E-03 5.555797764E-03 6.050918990E-03
 5.229916683E-03 -4.346071615E-03 -4.156187439E-03 -3.949270918E-03 5.833246943E-03
 4.962733066E-03 -4.523369384E-03 -3.726370493E-03 5.621816261E-03 4.683550688E-03
 -4.686876776E-03 -3.506805303E-03 5.425965919E-03 4.436963506E-03 -4.874327310E-03
 -3.281163694E-03 5.215083111E-03 4.218533088E-03 -5.038880666E-03 -3.057787888E-03
 5.001377990E-03 3.997353308E-03 -5.213707403E-03 -2.827238175E-03 4.810019290E-03
 3.831499588E-03 -5.410713212E-03 -2.597617704E-03 4.605576843E-03 3.657630060E-03
 -5.581890991E-03 -2.360392961E-03 4.390328683E-03 3.540437394E-03 -5.775658369E-03
 -2.123037540E-03 4.204530234E-03 3.404395571E-03 -5.962519508E-03 -1.878141723E-03
 4.007166990E-03 3.344168086E-03 -6.145034693E-03 -1.632075639E-03 3.791618467E-03
 3.164142583E-03 -6.352308696E-03 -1.285428061E-03 -1.378754672E-03 -1.123289461E-03
 3.609822570E-03 2.360241409E-03 -6.528013275E-03 -8.611466102E-04 3.420049045E-03
 1.777166693E-03 -6.721949435E-03 -5.956635046E-04 3.209172826E-03 1.812427392E-03
 -6.921060511E-03 -3.244436021E-04 3.025336676E-03 1.886215100E-03 -7.098830718E-03
 -4.962028356E-05 2.843273356E-03 2.041819660E-03 -7.303094417E-03 2.296444087E-04
 2.642585561E-03 6.636365141E-03 -7.468088893E-03 5.143281059E-04 2.452929455E-03
 8.542456128E-03 -7.646720480E-03 8.038768964E-04 2.280084105E-03 5.465619654E-03
 -7.836860051E-03 1.098479145E-03 2.092634173E-03 4.881215081E-03 -8.163877226E-03
 -8.018372224E-03 -7.988524337E-03 1.406715864E-03 1.894973071E-03 4.792331371E-03
 -8.290134771E-03 1.690569318E-03 4.876341410E-03 -8.425667103E-03 4.950773494E-03
 -8.567484868E-03 5.036529842E-03 -8.660568512E-03 5.049224679E-03 -8.752935926E-03
 5.165413952E-03 -6.738999310E-03 5.246676614E-03 -4.704739647E-03 5.401718897E-03
 -4.747680192E-03 5.521208246E-03 -4.813704443E-03 5.640344203E-03 -5.148614331E-03
 5.804496394E-03 -5.694070125E-03 5.924043552E-03 -1.315513241E-02 6.094183907E-03
 -2.236051686E-02 6.243056712E-03 -1.946779939E-02 6.364549016E-03 -1.334387447E-02
 6.513535635E-03 -1.189242317E-02 6.657583958E-03 -1.162782813E-02 6.785953003E-03
 -1.151766135E-02 6.940286142E-03 -1.147197471E-02 7.123262173E-03 -1.138983136E-02
 7.259965052E-03 -1.136558615E-02 7.480005985E-03 -1.130683629E-02 7.691982549E-03
 -1.127193620E-02 7.900610747E-03 -1.128275645E-02 8.267563641E-03 -1.123413869E-02
 8.535550644E-03 -1.125053626E-02 8.931020515E-03 -1.121020366E-02 9.338259329E-03
 -1.122263438E-02 9.786335027E-03 -1.120668052E-02 1.026331538E-02 -1.119494338E-02
 1.072404553E-02 -1.122625769E-02 1.121546840E-02 -1.117544615E-02 1.167217862E-02
 -1.117450668E-02 1.212753782E-02 -1.109977043E-02 1.250671997E-02 -1.105997616E-02
 1.284375941E-02 -1.106460915E-02 1.306973865E-02 -1.106551799E-02 1.324989788E-02
 1.322626338E-02 1.327302656E-02 -1.098667899E-02 1.324397139E-02 -1.096397758E-02
 1.311711684E-02 -1.086494374E-02 1.293192217E-02 -1.081336123E-02 1.269379602E-02
 -1.080922175E-02 1.248469306E-02 -1.069663618E-02 1.234528150E-02 -1.064755956E-02
 1.233516133E-02 -1.053474529E-02 1.232178897E-02 -1.044705013E-02 1.228426107E-02
 -1.043130572E-02 1.208714069E-02 -1.028029945E-02 1.167607890E-02 -1.021453331E-02
 1.156391200E-02 -1.014610595E-02 1.129902214E-02 -1.005101781E-02 1.080042215E-02
 -1.008314904E-02 1.083267336E-02 -9.956834084E-03 1.076012433E-02 -9.925324508E-03
 1.031853305E-02 -1.001127403E-02 1.030814160E-02 -9.983154005E-03 1.040756992E-02
 -1.008680041E-02 -1.032795558E-02 -1.017461129E-02 9.979452833E-03 -1.057261843E-02
 9.709898432E-03 -1.078527232E-02 9.949992729E-03 -1.100820882E-02 9.577684713E-03
 -1.116820159E-02 9.065454345E-03 -1.128627777E-02 9.531219286E-03 -1.138956386E-02
 9.178021839E-03 -1.146600989E-02 8.113011187E-03 -1.158683784E-02 8.571768268E-03
 -1.162627985E-02 8.057572361E-03 -1.166266816E-02 6.257294726E-03 -1.143343050E-02
 -1.150622230E-02 6.477490033E-03 -1.130251659E-02 5.976726457E-03 -1.080261293E-02
 3.958541514E-03 -1.030957923E-02 3.653076769E-03 -9.708776910E-03 3.335665134E-03
 -9.322625555E-03 1.527585112E-03 -8.767686590E-03 3.056005075E-04 -8.261854837E-03
 2.751129128E-04 -7.077663159E-03 -9.396903443E-04 -5.901720449E-03 -3.177474437E-03
 -4.395308595E-03 -3.320421359E-03
 2 1
 1 3
 3 5
 5 7
 7 9
 9 11
 11 13
 13 15
 15 17
 17 19
 19 23
 23 22
 22 21
 21 25
 25 27
 27 29
 29 31
 31 33
 33 35
 35 37
 37 39
 39 41
 41 43
 43 45
 45 47
 47 49
 49 51
 51 53
 53 55
 55 57
 57 59
 59 61
 61 63
 63 65
 65 67
 67 69
 69 71
 71 73
 73 75
 75 77
 77 79
 79 81
 81 83
 83 85
 85 87
 87 89
 89 91
 91 93
 93 95
 95 97
 97 99
 99 101
 101 103
 103 105
 105 107
 107 109
 109 111
 111 113
 113 115
 115 117
 117 119
 119 121
 121 123
 123 125
 125 127
 127 129
 129 131
 131 133
 133 135
 135 137
 137 139
 139 141
 141 143
 143 145
 145 147
 147 149
 149 151
 151 153
 153 155
 155 157
 157 159
 159 161
 161 163
 163 165
 165 167
 167 169
 169 171
 171 173
 173 175
 175 177
 177 179
 179 181
 181 183
 183 185
 185 187
 187 189
 189 191
 191 193
 193 195
 195 197
 197 199
 199 201
 201 203
 203 205
 205 207
 207 209
 209 211
 211 213
 213 215
 215 217
 217 219
 219 221
 221 222
 222 220
 220 218
 218 216
 216 214
 214 212
 212 210
 210 208
 208 206
 206 204
 204 202
 202 200
 200 198
 198 196
 196 194
 194 192
 192 190
 190 188
 188 186
 186 184
 184 182
 182 180
 180 178
 178 176
 176 174
 174 172
 172 170
 170 168
 168 166
 166 164
 164 162
 162 160
 160 158
 158 156
 156 154
 154 152
 152 150
 150 148
 148 146
 146 144
 144 142
 142 140
 140 138
 138 136
 136 134
 134 132
 132 130
 130 128
 128 126
 126 124
 124 122
 122 120
 120 118
 118 116
 116 114
 114 112
 112 110
 110 108
 108 106
 106 104
 104 102
 102 100
 100 98
 98 96
 96 94
 94 92
 92 90
 90 88
 88 86
 86 84
 84 82
 82 80
 80 78
 78 76
 76 74
 74 72
 72 70
 70 68
 68 66
 66 64
 64 62
 62 60
 60 58
 58 56
 56 54
 54 52
 52 50
 50 48
 48 46
 46 44
 44 42
 42 40
 40 38
 38 36
 36 34
 34 32
 32 30
 30 28
 28 26
 26 24
 24 20
 20 18
 18 16
 16 14
 14 12
 12 10
 10 8
 8 6
 6 4
 4 2
 250 248
 248 249
 249 246
 246 244
 244 242
 242 240
 240 238
 238 236
 236 234
 234 232
 232 230
 230 228
 228 226
 226 223
 223 224
 224 225
 225 227
 227 229
 229 231
 231 233
 233 235
 235 237
 237 239
 239 241
 241 243
 243 245
 245 247
 247 251