TITLE     = "Fluent Common Fluid Files Data"
VARIABLES = "X"
"Y"
"Z"
"Static Pressure"
DATASETAUXDATA Common.DensityVar="7"
DATASETAUXDATA Common.PressureVar="15"
DATASETAUXDATA Common.TemperatureVar="17"
DATASETAUXDATA Common.TurbulentDynamicViscosityVar="12"
DATASETAUXDATA Common.TurbulentKineticEnergyVar="10"
DATASETAUXDATA Common.UVar="18"
DATASETAUXDATA Common.VectorVarsAreVelocity="True"
DATASETAUXDATA Common.ViscosityVar="11"
DATASETAUXDATA Common.VVar="19"
DATASETAUXDATA Common.WVar="20"
ZONE T="Slice: Z=0.1 (region 1)"
 STRANDID=7, SOLUTIONTIME=0
 I=223, J=1, K=1, ZONETYPE=Ordered
 DATAPACKING=BLOCK
 DT=(DOUBLE DOUBLE DOUBLE DOUBLE )
 2.559303055E+00 2.559315316E+00 2.559326192E+00 2.559337053E+00 2.559347900E+00
 2.559358734E+00 2.559369553E+00 2.559380358E+00 2.559391149E+00 2.559401925E+00
 2.559412686E+00 2.559423434E+00 2.559434168E+00 2.559444888E+00 2.559455594E+00
 2.559466286E+00 2.559476965E+00 2.559487630E+00 2.559496338E+00 2.559504861E+00
 2.559513370E+00 2.559521862E+00 2.559530291E+00 2.559538673E+00 2.559547043E+00
 2.559555401E+00 2.559563747E+00 2.559572082E+00 2.559580404E+00 2.559588715E+00
 2.559597014E+00 2.559605255E+00 2.557810291E+00 2.556033100E+00 2.554250360E+00
 2.552485974E+00 2.550736704E+00 2.548994104E+00 2.547271167E+00 2.545553734E+00
 2.543849255E+00 2.542160644E+00 2.540487035E+00 2.538826372E+00 2.537174411E+00
 2.535532877E+00 2.533903265E+00 2.532272273E+00 2.530663465E+00 2.529198527E+00
 2.529059201E+00 2.527452570E+00 2.525844544E+00 2.524234676E+00 2.522623902E+00
 2.521011028E+00 2.519396064E+00 2.517772845E+00 2.516148882E+00 2.514523094E+00
 2.512889677E+00 2.511251273E+00 2.509609974E+00 2.507961070E+00 2.506308957E+00
 2.504650094E+00 2.502985468E+00 2.501313137E+00 2.499635407E+00 2.497956658E+00
 2.496267478E+00 2.494577079E+00 2.492881001E+00 2.491179488E+00 2.489478233E+00
 2.487767527E+00 2.486057496E+00 2.484337353E+00 2.482616845E+00 2.480897378E+00
 2.479171110E+00 2.477447528E+00 2.475718253E+00 2.473987046E+00 2.472258226E+00
 2.470524667E+00 2.468785515E+00 2.467050986E+00 2.465312926E+00 2.463576557E+00
 2.461841900E+00 2.460108835E+00 2.458373924E+00 2.456641804E+00 2.454909454E+00
 2.453182762E+00 2.451453076E+00 2.449726927E+00 2.448005462E+00 2.446287654E+00
 2.444573363E+00 2.442859854E+00 2.441157014E+00 2.439453335E+00 2.437758781E+00
 2.436073579E+00 2.434386314E+00 2.432715676E+00 2.431053025E+00 2.429404889E+00
 2.427786633E+00 2.426169539E+00 2.425460998E+00 2.424752804E+00 2.424053191E+00
 2.423375524E+00 2.422733711E+00 2.422132616E+00 2.421553622E+00 2.420951202E+00
 2.420319169E+00 2.419730892E+00 2.419250175E+00 2.418740953E+00 2.418244913E+00
 2.417955250E+00 2.417695354E+00 2.417448011E+00 2.417516751E+00 2.417744834E+00
 2.418023156E+00 2.418384430E+00 2.418814029E+00 2.419281504E+00 2.419792536E+00
 2.420348749E+00 2.420919435E+00 2.421495754E+00 2.422087567E+00 2.422705080E+00
 2.423332097E+00 2.423960659E+00 2.424584659E+00 2.426203699E+00 2.427839686E+00
 2.429493608E+00 2.431142629E+00 2.432811409E+00 2.434494005E+00 2.436177578E+00
 2.437852319E+00 2.439520423E+00 2.441199906E+00 2.442887716E+00 2.444574914E+00
 2.446263181E+00 2.447948503E+00 2.449628853E+00 2.451321606E+00 2.453005516E+00
 2.454699843E+00 2.456393033E+00 2.458089653E+00 2.459788807E+00 2.461486994E+00
 2.463189110E+00 2.464878384E+00 2.466570051E+00 2.468272207E+00 2.469986543E+00
 2.471699213E+00 2.473411001E+00 2.475121183E+00 2.476823133E+00 2.478530502E+00
 2.480237352E+00 2.481947734E+00 2.483666188E+00 2.483671517E+00 2.485381372E+00
 2.487090178E+00 2.488794671E+00 2.490504985E+00 2.492221007E+00 2.493937192E+00
 2.495648669E+00 2.497357425E+00 2.499070408E+00 2.500784526E+00 2.502497853E+00
 2.504208663E+00 2.505917953E+00 2.507629510E+00 2.509341298E+00 2.511051564E+00
 2.512760798E+00 2.514469816E+00 2.516179089E+00 2.517888813E+00 2.519598705E+00
 2.521308524E+00 2.523017035E+00 2.524725806E+00 2.526436767E+00 2.528148800E+00
 2.529863294E+00 2.531577402E+00 2.533294404E+00 2.535014303E+00 2.536736683E+00
 2.538460589E+00 2.540186108E+00 2.541916399E+00 2.543647168E+00 2.545380748E+00
 2.547115790E+00 2.548853066E+00 2.550593446E+00 2.552335100E+00 2.554079477E+00
 2.555821620E+00 2.557579427E+00 2.559303055E+00
 -1.499229547E+00 -1.499295655E+00 -1.499361627E+00 -1.499427626E+00 -1.499493650E+00
 -1.499559700E+00 -1.499625777E+00 -1.499691879E+00 -1.499758007E+00 -1.499824161E+00
 -1.499890341E+00 -1.499956547E+00 -1.500022778E+00 -1.500089035E+00 -1.500155318E+00
 -1.500221626E+00 -1.500287960E+00 -1.500354319E+00 -1.500420438E+00 -1.500486556E+00
 -1.500552698E+00 -1.500618862E+00 -1.500685050E+00 -1.500751260E+00 -1.500817492E+00
 -1.500883748E+00 -1.500950025E+00 -1.501016326E+00 -1.501082649E+00 -1.501148994E+00
 -1.501215362E+00 -1.501281756E+00 -1.501423597E+00 -1.501527665E+00 -1.501646372E+00
 -1.501796112E+00 -1.501973554E+00 -1.502161980E+00 -1.502390138E+00 -1.502622225E+00
 -1.502880159E+00 -1.503163968E+00 -1.503458699E+00 -1.503761581E+00 -1.504087170E+00
 -1.504435827E+00 -1.504817408E+00 -1.505216764E+00 -1.505646926E+00 -1.506036065E+00
 -1.506071219E+00 -1.506485007E+00 -1.506890984E+00 -1.507296400E+00 -1.507703128E+00
 -1.508108119E+00 -1.508509104E+00 -1.508893478E+00 -1.509278442E+00 -1.509661711E+00
 -1.510030432E+00 -1.510390456E+00 -1.510746546E+00 -1.511087389E+00 -1.511421065E+00
 -1.511739719E+00 -1.512052371E+00 -1.512348382E+00 -1.512632801E+00 -1.512912121E+00
 -1.513165987E+00 -1.513417668E+00 -1.513655635E+00 -1.513875008E+00 -1.514090518E+00
 -1.514278762E+00 -1.514472134E+00 -1.514639170E+00 -1.514797347E+00 -1.514954853E+00
 -1.515088493E+00 -1.515225629E+00 -1.515342383E+00 -1.515442888E+00 -1.515550966E+00
 -1.515624139E+00 -1.515663970E+00 -1.515713296E+00 -1.515723427E+00 -1.515736629E+00
 -1.515740265E+00 -1.515749222E+00 -1.515727987E+00 -1.515700219E+00 -1.515659011E+00
 -1.515596276E+00 -1.515525226E+00 -1.515432234E+00 -1.515329589E+00 -1.515202344E+00
 -1.515055029E+00 -1.514898887E+00 -1.514708833E+00 -1.514489489E+00 -1.514244365E+00
 -1.513964513E+00 -1.513658244E+00 -1.513312065E+00 -1.512928705E+00 -1.512501691E+00
 -1.511971657E+00 -1.511425482E+00 -1.511156951E+00 -1.510888235E+00 -1.510611254E+00
 -1.510306087E+00 -1.509949351E+00 -1.509536107E+00 -1.509096807E+00 -1.508679812E+00
 -1.508279031E+00 -1.507798510E+00 -1.507254822E+00 -1.506706584E+00 -1.506078663E+00
 -1.505402713E+00 -1.504714622E+00 -1.503937742E+00 -1.503162004E+00 -1.502476070E+00
 -1.501839246E+00 -1.501251986E+00 -1.500719248E+00 -1.500220373E+00 -1.499751535E+00
 -1.499340435E+00 -1.498978110E+00 -1.498631994E+00 -1.498297427E+00 -1.498004483E+00
 -1.497747990E+00 -1.497505294E+00 -1.497255268E+00 -1.496697682E+00 -1.496203559E+00
 -1.495761691E+00 -1.495392952E+00 -1.495072066E+00 -1.494774417E+00 -1.494501175E+00
 -1.494259767E+00 -1.494032110E+00 -1.493835354E+00 -1.493640294E+00 -1.493476109E+00
 -1.493315283E+00 -1.493177583E+00 -1.493054099E+00 -1.492944848E+00 -1.492847881E+00
 -1.492759810E+00 -1.492679972E+00 -1.492606829E+00 -1.492543338E+00 -1.492485933E+00
 -1.492451805E+00 -1.492420317E+00 -1.492406584E+00 -1.492396322E+00 -1.492391358E+00
 -1.492389818E+00 -1.492394340E+00 -1.492413140E+00 -1.492432225E+00 -1.492461203E+00
 -1.492489776E+00 -1.492532984E+00 -1.492579223E+00 -1.492579345E+00 -1.492610256E+00
 -1.492627418E+00 -1.492671405E+00 -1.492737337E+00 -1.492812355E+00 -1.492885097E+00
 -1.492964149E+00 -1.493039832E+00 -1.493112934E+00 -1.493196727E+00 -1.493277578E+00
 -1.493371316E+00 -1.493467279E+00 -1.493568774E+00 -1.493678989E+00 -1.493769760E+00
 -1.493862627E+00 -1.493977796E+00 -1.494101364E+00 -1.494229262E+00 -1.494358131E+00
 -1.494491645E+00 -1.494629201E+00 -1.494763363E+00 -1.494917464E+00 -1.495085731E+00
 -1.495266770E+00 -1.495440630E+00 -1.495619629E+00 -1.495802538E+00 -1.495990150E+00
 -1.496184383E+00 -1.496390044E+00 -1.496609928E+00 -1.496831299E+00 -1.497055694E+00
 -1.497280923E+00 -1.497519814E+00 -1.497767185E+00 -1.498017608E+00 -1.498273075E+00
 -1.498547142E+00 -1.498814974E+00 -1.499229547E+00
 1.000000000E-01 1.000000000E-01 1.000000000E-01 1.000000000E-01 1.000000000E-01
 1.000000000E-01 1.000000000E-01 1.000000000E-01 1.000000000E-01 1.000000000E-01
 1.000000000E-01 1.000000000E-01 1.000000000E-01 1.000000000E-01 1.000000000E-01
 1.000000000E-01 1.000000000E-01 1.000000000E-01 1.000000000E-01 1.000000000E-01
 1.000000000E-01 1.000000000E-01 1.000000000E-01 1.000000000E-01 1.000000000E-01
 1.000000000E-01 1.000000000E-01 1.000000000E-01 1.000000000E-01 1.000000000E-01
 1.000000000E-01 1.000000000E-01 1.000000000E-01 1.000000000E-01 1.000000000E-01
 1.000000000E-01 1.000000000E-01 1.000000000E-01 1.000000000E-01 1.000000000E-01
 1.000000000E-01 1.000000000E-01 1.000000000E-01 1.000000000E-01 1.000000000E-01
 1.000000000E-01 1.000000000E-01 1.000000000E-01 1.000000000E-01 1.000000000E-01
 1.000000000E-01 1.000000000E-01 1.000000000E-01 1.000000000E-01 1.000000000E-01
 1.000000000E-01 1.000000000E-01 1.000000000E-01 1.000000000E-01 1.000000000E-01
 1.000000000E-01 1.000000000E-01 1.000000000E-01 1.000000000E-01 1.000000000E-01
 1.000000000E-01 1.000000000E-01 1.000000000E-01 1.000000000E-01 1.000000000E-01
 1.000000000E-01 1.000000000E-01 1.000000000E-01 1.000000000E-01 1.000000000E-01
 1.000000000E-01 1.000000000E-01 1.000000000E-01 1.000000000E-01 1.000000000E-01
 1.000000000E-01 1.000000000E-01 1.000000000E-01 1.000000000E-01 1.000000000E-01
 1.000000000E-01 1.000000000E-01 1.000000000E-01 1.000000000E-01 1.000000000E-01
 1.000000000E-01 1.000000000E-01 1.000000000E-01 1.000000000E-01 1.000000000E-01
 1.000000000E-01 1.000000000E-01 1.000000000E-01 1.000000000E-01 1.000000000E-01
 1.000000000E-01 1.000000000E-01 1.000000000E-01 1.000000000E-01 1.000000000E-01
 1.000000000E-01 1.000000000E-01 1.000000000E-01 1.000000000E-01 1.000000000E-01
 1.000000000E-01 1.000000000E-01 1.000000000E-01 1.000000000E-01 1.000000000E-01
 1.000000000E-01 1.000000000E-01 1.000000000E-01 1.000000000E-01 1.000000000E-01
 1.000000000E-01 1.000000000E-01 1.000000000E-01 1.000000000E-01 1.000000000E-01
 1.000000000E-01 1.000000000E-01 1.000000000E-01 1.000000000E-01 1.000000000E-01
 1.000000000E-01 1.000000000E-01 1.000000000E-01 1.000000000E-01 1.000000000E-01
 1.000000000E-01 1.000000000E-01 1.000000000E-01 1.000000000E-01 1.000000000E-01
 1.000000000E-01 1.000000000E-01 1.000000000E-01 1.000000000E-01 1.000000000E-01
 1.000000000E-01 1.000000000E-01 1.000000000E-01 1.000000000E-01 1.000000000E-01
 1.000000000E-01 1.000000000E-01 1.000000000E-01 1.000000000E-01 1.000000000E-01
 1.000000000E-01 1.000000000E-01 1.000000000E-01 1.000000000E-01 1.000000000E-01
 1.000000000E-01 1.000000000E-01 1.000000000E-01 1.000000000E-01 1.000000000E-01
 1.000000000E-01 1.000000000E-01 1.000000000E-01 1.000000000E-01 1.000000000E-01
 1.000000000E-01 1.000000000E-01 1.000000000E-01 1.000000000E-01 1.000000000E-01
 1.000000000E-01 1.000000000E-01 1.000000000E-01 1.000000000E-01 1.000000000E-01
 1.000000000E-01 1.000000000E-01 1.000000000E-01 1.000000000E-01 1.000000000E-01
 1.000000000E-01 1.000000000E-01 1.000000000E-01 1.000000000E-01 1.000000000E-01
 1.000000000E-01 1.000000000E-01 1.000000000E-01 1.000000000E-01 1.000000000E-01
 1.000000000E-01 1.000000000E-01 1.000000000E-01 1.000000000E-01 1.000000000E-01
 1.000000000E-01 1.000000000E-01 1.000000000E-01 1.000000000E-01 1.000000000E-01
 1.000000000E-01 1.000000000E-01 1.000000000E-01 1.000000000E-01 1.000000000E-01
 1.000000000E-01 1.000000000E-01 1.000000000E-01 1.000000000E-01 1.000000000E-01
 1.000000000E-01 1.000000000E-01 1.000000000E-01 1.000000000E-01 1.000000000E-01
 1.000000000E-01 1.000000000E-01 1.000000000E-01
 -5.636052971E+01 -5.655671214E+01 -5.481088809E+01 -5.417269991E+01 -5.370859996E+01
 -5.350892407E+01 -5.372561456E+01 -5.338330094E+01 -5.293553682E+01 -5.252017032E+01
 -5.214244184E+01 -5.184704137E+01 -5.154480839E+01 -5.148592237E+01 -5.125235735E+01
 -5.058125893E+01 -5.018256756E+01 -5.002080041E+01 -4.992346852E+01 -4.993239949E+01
 -5.005511043E+01 -5.031631481E+01 -5.068039044E+01 -5.108734677E+01 -5.146066268E+01
 -5.186862977E+01 -5.227258635E+01 -5.261570574E+01 -5.266480584E+01 -5.351025493E+01
 -5.695274921E+01 -5.503824466E+01 -4.890024057E+01 -4.615839021E+01 -4.287895505E+01
 -3.835891524E+01 -3.360785745E+01 -3.116278751E+01 -3.159628286E+01 -3.380778944E+01
 -3.771648198E+01 -4.115372669E+01 -4.247332023E+01 -4.187475005E+01 -4.001546947E+01
 -3.797392204E+01 -3.633604954E+01 -3.558739982E+01 -3.576907659E+01 -3.662177914E+01
 -3.673930703E+01 -3.845767009E+01 -4.028032651E+01 -4.307202182E+01 -4.636358391E+01
 -5.019684652E+01 -5.500422645E+01 -6.080883287E+01 -6.799748505E+01 -7.554080787E+01
 -8.242358918E+01 -8.985056974E+01 -9.674623167E+01 -1.032441727E+02 -1.101701613E+02
 -1.179468726E+02 -1.259274928E+02 -1.327683389E+02 -1.402389158E+02 -1.464006805E+02
 -1.520046486E+02 -1.582007121E+02 -1.621115168E+02 -1.659156563E+02 -1.687163064E+02
 -1.722638630E+02 -1.754481088E+02 -1.751420459E+02 -1.771265146E+02 -1.785624585E+02
 -1.800081189E+02 -1.824926446E+02 -1.823364548E+02 -1.868993750E+02 -1.904479552E+02
 -1.857714195E+02 -1.832953858E+02 -1.790956239E+02 -1.735063335E+02 -1.706589091E+02
 -1.699356958E+02 -1.692403559E+02 -1.655305224E+02 -1.644921021E+02 -1.609540634E+02
 -1.574697251E+02 -1.559698046E+02 -1.536019914E+02 -1.509139768E+02 -1.451214743E+02
 -1.444029408E+02 -1.434456476E+02 -1.379446431E+02 -1.357305145E+02 -1.287375250E+02
 -1.237581085E+02 -1.213263304E+02 -1.171260562E+02 -1.165249462E+02 -9.468474269E+01
 -6.668620376E+01 -5.201253178E+01 -4.657352206E+01 -5.642442312E+01 -6.422337502E+01
 -4.682223927E+01 1.163793586E+01 9.131333150E+01 1.375931391E+02 1.317696228E+02
 1.444813455E+02 2.135454604E+02 2.681065862E+02 3.005526623E+02 3.517627465E+02
 3.892254700E+02 3.923855045E+02 3.531132284E+02 2.835615302E+02 2.228461400E+02
 1.571993820E+02 8.609476186E+01 3.576199952E+01 -7.135714153E+00 -5.923189016E+01
 -9.607586060E+01 -1.047787822E+02 -1.148025863E+02 -1.462928373E+02 -1.727457016E+02
 -1.699086276E+02 -1.552379872E+02 -1.663453657E+02 -1.898470696E+02 -1.966865821E+02
 -2.090148498E+02 -2.227264246E+02 -2.215053598E+02 -2.164178290E+02 -2.187156827E+02
 -2.246061216E+02 -2.298557281E+02 -2.301407955E+02 -2.294109671E+02 -2.307753660E+02
 -2.310888587E+02 -2.339576766E+02 -2.339766941E+02 -2.314627560E+02 -2.299375987E+02
 -2.270546208E+02 -2.246867744E+02 -2.230896590E+02 -2.227140515E+02 -2.237068118E+02
 -2.223144617E+02 -2.218992319E+02 -2.201299121E+02 -2.147877640E+02 -2.091982751E+02
 -2.055937915E+02 -2.042186988E+02 -2.023088017E+02 -1.999083140E+02 -1.965144998E+02
 -1.938915030E+02 -1.896309724E+02 -1.819200331E+02 -1.819063567E+02 -1.775168131E+02
 -1.811671978E+02 -1.836569128E+02 -1.771129341E+02 -1.681483145E+02 -1.622051936E+02
 -1.581361500E+02 -1.540400041E+02 -1.510076653E+02 -1.482255205E+02 -1.462196981E+02
 -1.449970478E+02 -1.421080209E+02 -1.385742530E+02 -1.343101473E+02 -1.324961485E+02
 -1.342092037E+02 -1.323824810E+02 -1.276711305E+02 -1.240194044E+02 -1.219966471E+02
 -1.200413492E+02 -1.174112568E+02 -1.158768196E+02 -1.137344570E+02 -1.092096656E+02
 -1.032357984E+02 -9.776898780E+01 -9.309583761E+01 -8.849145699E+01 -8.420178732E+01
 -8.071542748E+01 -7.782150449E+01 -7.487900327E+01 -7.227431865E+01 -7.034710973E+01
 -6.913037520E+01 -6.774766411E+01 -6.541257771E+01 -6.247046384E+01 -5.921351079E+01
 -5.392510987E+01 -5.271500655E+01 -5.636052971E+01
ZONE T="Slice: Z=0.110645 (region 1)"
 STRANDID=7, SOLUTIONTIME=0
 I=221, J=1, K=1, ZONETYPE=Ordered
 DATAPACKING=BLOCK
 DT=(DOUBLE DOUBLE DOUBLE DOUBLE )
 2.566367336E+00 2.566367350E+00 2.566367350E+00 2.566367350E+00 2.566367350E+00
 2.566367350E+00 2.566367350E+00 2.566367350E+00 2.566367350E+00 2.566367350E+00
 2.566367350E+00 2.566367350E+00 2.566367350E+00 2.566367349E+00 2.566367349E+00
 2.566367349E+00 2.566367349E+00 2.566367349E+00 2.566367349E+00 2.566367349E+00
 2.566367349E+00 2.566367349E+00 2.566367349E+00 2.566367349E+00 2.566367349E+00
 2.566367349E+00 2.566367349E+00 2.566367349E+00 2.566367349E+00 2.566367349E+00
 2.566367349E+00 2.566367336E+00 2.564688336E+00 2.562978589E+00 2.561274182E+00
 2.559567753E+00 2.557862010E+00 2.556155495E+00 2.554449277E+00 2.552743309E+00
 2.551037382E+00 2.549331445E+00 2.547624752E+00 2.545914432E+00 2.544203230E+00
 2.542492363E+00 2.540783007E+00 2.539078129E+00 2.537378437E+00 2.535679168E+00
 2.533977758E+00 2.532273213E+00 2.530566170E+00 2.528859445E+00 2.527152737E+00
 2.525445688E+00 2.523738434E+00 2.522030393E+00 2.520320451E+00 2.518610512E+00
 2.516898366E+00 2.515185669E+00 2.513471621E+00 2.511755849E+00 2.510040075E+00
 2.508324301E+00 2.506608492E+00 2.504890514E+00 2.503171191E+00 2.501451432E+00
 2.499729527E+00 2.498007509E+00 2.496282526E+00 2.494556635E+00 2.492830744E+00
 2.491104847E+00 2.489378836E+00 2.487649485E+00 2.485919795E+00 2.484188892E+00
 2.482456874E+00 2.480724637E+00 2.478990426E+00 2.477256192E+00 2.475520270E+00
 2.473783564E+00 2.472046324E+00 2.470307686E+00 2.468569037E+00 2.466829619E+00
 2.465090081E+00 2.463350227E+00 2.461610193E+00 2.459870159E+00 2.458130876E+00
 2.456391648E+00 2.454653290E+00 2.452916434E+00 2.451181378E+00 2.449450239E+00
 2.447719090E+00 2.445995116E+00 2.444275020E+00 2.442559332E+00 2.440858437E+00
 2.439157806E+00 2.437473755E+00 2.435804177E+00 2.434153880E+00 2.432549704E+00
 2.430970803E+00 2.430285740E+00 2.429600744E+00 2.428925123E+00 2.428276023E+00
 2.427676664E+00 2.427137556E+00 2.426623898E+00 2.426078284E+00 2.425535214E+00
 2.425097460E+00 2.424748681E+00 2.424377379E+00 2.424126609E+00 2.423991711E+00
 2.423840283E+00 2.423785535E+00 2.423894189E+00 2.424120984E+00 2.424415475E+00
 2.424768287E+00 2.425173154E+00 2.425614301E+00 2.426101520E+00 2.426646771E+00
 2.427220966E+00 2.427799131E+00 2.428391498E+00 2.429016842E+00 2.429665905E+00
 2.430320046E+00 2.430970803E+00 2.432526637E+00 2.434126035E+00 2.435726861E+00
 2.437375212E+00 2.439044479E+00 2.440722931E+00 2.442404428E+00 2.444096901E+00
 2.445799427E+00 2.447509911E+00 2.449223687E+00 2.450939459E+00 2.452660103E+00
 2.454380849E+00 2.456107229E+00 2.457834092E+00 2.459563314E+00 2.461293922E+00
 2.463024989E+00 2.464757175E+00 2.466489359E+00 2.468222211E+00 2.469955135E+00
 2.471688333E+00 2.473421423E+00 2.475154133E+00 2.476886704E+00 2.478619456E+00
 2.480351930E+00 2.482084351E+00 2.483816057E+00 2.485546874E+00 2.487277454E+00
 2.489006705E+00 2.490735956E+00 2.492465179E+00 2.494194401E+00 2.495922352E+00
 2.497648691E+00 2.499375028E+00 2.501101323E+00 2.502827618E+00 2.504551784E+00
 2.506275303E+00 2.507998822E+00 2.509722340E+00 2.511445609E+00 2.513166242E+00
 2.514886865E+00 2.516607488E+00 2.518328109E+00 2.520047678E+00 2.521765563E+00
 2.523483449E+00 2.525201334E+00 2.526919225E+00 2.528636116E+00 2.530352581E+00
 2.532069047E+00 2.533785512E+00 2.535502018E+00 2.537218571E+00 2.538935085E+00
 2.540651596E+00 2.542368106E+00 2.544084627E+00 2.545801170E+00 2.547517714E+00
 2.549234264E+00 2.550950819E+00 2.552667375E+00 2.554383976E+00 2.556100555E+00
 2.557817090E+00 2.559533624E+00 2.561250379E+00 2.562963497E+00 2.564685045E+00
 2.566367336E+00
 -1.502240746E+00 -1.502321479E+00 -1.502402211E+00 -1.502482944E+00 -1.502563676E+00
 -1.502644409E+00 -1.502725141E+00 -1.502805874E+00 -1.502886606E+00 -1.502967339E+00
 -1.503048071E+00 -1.503128804E+00 -1.503209536E+00 -1.503290269E+00 -1.503371001E+00
 -1.503451734E+00 -1.503532466E+00 -1.503613198E+00 -1.503693931E+00 -1.503774663E+00
 -1.503855396E+00 -1.503936128E+00 -1.504016861E+00 -1.504097593E+00 -1.504178326E+00
 -1.504259058E+00 -1.504339791E+00 -1.504420523E+00 -1.504501256E+00 -1.504581988E+00
 -1.504662721E+00 -1.504743454E+00 -1.505199044E+00 -1.505524975E+00 -1.505874318E+00
 -1.506214876E+00 -1.506560111E+00 -1.506899739E+00 -1.507240927E+00 -1.507583544E+00
 -1.507926364E+00 -1.508269342E+00 -1.508608652E+00 -1.508928915E+00 -1.509244387E+00
 -1.509561866E+00 -1.509887671E+00 -1.510236760E+00 -1.510608138E+00 -1.510981089E+00
 -1.511346143E+00 -1.511698637E+00 -1.512039381E+00 -1.512378200E+00 -1.512717080E+00
 -1.513052671E+00 -1.513386593E+00 -1.513717071E+00 -1.514038947E+00 -1.514360823E+00
 -1.514671594E+00 -1.514979756E+00 -1.515280110E+00 -1.515570102E+00 -1.515860094E+00
 -1.516150087E+00 -1.516439936E+00 -1.516716123E+00 -1.516983157E+00 -1.517247624E+00
 -1.517499229E+00 -1.517750316E+00 -1.517979186E+00 -1.518200721E+00 -1.518422256E+00
 -1.518643765E+00 -1.518864675E+00 -1.519059643E+00 -1.519251912E+00 -1.519430953E+00
 -1.519596555E+00 -1.519760013E+00 -1.519901021E+00 -1.520041838E+00 -1.520161294E+00
 -1.520269453E+00 -1.520369166E+00 -1.520441781E+00 -1.520514248E+00 -1.520559154E+00
 -1.520597396E+00 -1.520619247E+00 -1.520615064E+00 -1.520610444E+00 -1.520557542E+00
 -1.520502574E+00 -1.520425059E+00 -1.520319511E+00 -1.520188321E+00 -1.520012121E+00
 -1.519835921E+00 -1.519599778E+00 -1.519336941E+00 -1.519046586E+00 -1.518679197E+00
 -1.518310975E+00 -1.517873152E+00 -1.517382852E+00 -1.516831258E+00 -1.516156908E+00
 -1.515425709E+00 -1.515118181E+00 -1.514810396E+00 -1.514482838E+00 -1.514106043E+00
 -1.513653860E+00 -1.513130487E+00 -1.512582781E+00 -1.512066479E+00 -1.511548307E+00
 -1.510937044E+00 -1.510272502E+00 -1.509619774E+00 -1.508911922E+00 -1.508173160E+00
 -1.507437638E+00 -1.506688694E+00 -1.505945631E+00 -1.505229709E+00 -1.504538895E+00
 -1.503875978E+00 -1.503243485E+00 -1.502635771E+00 -1.502064324E+00 -1.501547950E+00
 -1.501063964E+00 -1.500584730E+00 -1.500123167E+00 -1.499707379E+00 -1.499329673E+00
 -1.498960838E+00 -1.498586061E+00 -1.497822199E+00 -1.497154385E+00 -1.496489990E+00
 -1.495954342E+00 -1.495487826E+00 -1.495055588E+00 -1.494635275E+00 -1.494261687E+00
 -1.493936935E+00 -1.493657234E+00 -1.493398185E+00 -1.493152851E+00 -1.492944546E+00
 -1.492736724E+00 -1.492583192E+00 -1.492434564E+00 -1.492316871E+00 -1.492221648E+00
 -1.492134996E+00 -1.492075062E+00 -1.492015102E+00 -1.491979625E+00 -1.491947328E+00
 -1.491938163E+00 -1.491959856E+00 -1.492001888E+00 -1.492049469E+00 -1.492089895E+00
 -1.492140745E+00 -1.492193440E+00 -1.492266040E+00 -1.492357307E+00 -1.492453000E+00
 -1.492570253E+00 -1.492687511E+00 -1.492805219E+00 -1.492922926E+00 -1.493058015E+00
 -1.493212356E+00 -1.493366718E+00 -1.493521518E+00 -1.493676322E+00 -1.493853264E+00
 -1.494036419E+00 -1.494219573E+00 -1.494402728E+00 -1.494588208E+00 -1.494796742E+00
 -1.495005352E+00 -1.495213962E+00 -1.495422580E+00 -1.495639713E+00 -1.495869779E+00
 -1.496099845E+00 -1.496329911E+00 -1.496559942E+00 -1.496797314E+00 -1.497037743E+00
 -1.497278171E+00 -1.497518600E+00 -1.497758776E+00 -1.497998622E+00 -1.498238706E+00
 -1.498478810E+00 -1.498718914E+00 -1.498958942E+00 -1.499198812E+00 -1.499438678E+00
 -1.499678501E+00 -1.499918284E+00 -1.500158066E+00 -1.500397567E+00 -1.500637219E+00
 -1.500877151E+00 -1.501117087E+00 -1.501355493E+00 -1.501603280E+00 -1.501824920E+00
 -1.502240746E+00
 1.106451613E-01 1.106451613E-01 1.106451613E-01 1.106451613E-01 1.106451613E-01
 1.106451613E-01 1.106451613E-01 1.106451613E-01 1.106451613E-01 1.106451613E-01
 1.106451613E-01 1.106451613E-01 1.106451613E-01 1.106451613E-01 1.106451613E-01
 1.106451613E-01 1.106451613E-01 1.106451613E-01 1.106451613E-01 1.106451613E-01
 1.106451613E-01 1.106451613E-01 1.106451613E-01 1.106451613E-01 1.106451613E-01
 1.106451613E-01 1.106451613E-01 1.106451613E-01 1.106451613E-01 1.106451613E-01
 1.106451613E-01 1.106451613E-01 1.106451613E-01 1.106451613E-01 1.106451613E-01
 1.106451613E-01 1.106451613E-01 1.106451613E-01 1.106451613E-01 1.106451613E-01
 1.106451613E-01 1.106451613E-01 1.106451613E-01 1.106451613E-01 1.106451613E-01
 1.106451613E-01 1.106451613E-01 1.106451613E-01 1.106451613E-01 1.106451613E-01
 1.106451613E-01 1.106451613E-01 1.106451613E-01 1.106451613E-01 1.106451613E-01
 1.106451613E-01 1.106451613E-01 1.106451613E-01 1.106451613E-01 1.106451613E-01
 1.106451613E-01 1.106451613E-01 1.106451613E-01 1.106451613E-01 1.106451613E-01
 1.106451613E-01 1.106451613E-01 1.106451613E-01 1.106451613E-01 1.106451613E-01
 1.106451613E-01 1.106451613E-01 1.106451613E-01 1.106451613E-01 1.106451613E-01
 1.106451613E-01 1.106451613E-01 1.106451613E-01 1.106451613E-01 1.106451613E-01
 1.106451613E-01 1.106451613E-01 1.106451613E-01 1.106451613E-01 1.106451613E-01
 1.106451613E-01 1.106451613E-01 1.106451613E-01 1.106451613E-01 1.106451613E-01
 1.106451613E-01 1.106451613E-01 1.106451613E-01 1.106451613E-01 1.106451613E-01
 1.106451613E-01 1.106451613E-01 1.106451613E-01 1.106451613E-01 1.106451613E-01
 1.106451613E-01 1.106451613E-01 1.106451613E-01 1.106451613E-01 1.106451613E-01
 1.106451613E-01 1.106451613E-01 1.106451613E-01 1.106451613E-01 1.106451613E-01
 1.106451613E-01 1.106451613E-01 1.106451613E-01 1.106451613E-01 1.106451613E-01
 1.106451613E-01 1.106451613E-01 1.106451613E-01 1.106451613E-01 1.106451613E-01
 1.106451613E-01 1.106451613E-01 1.106451613E-01 1.106451613E-01 1.106451613E-01
 1.106451613E-01 1.106451613E-01 1.106451613E-01 1.106451613E-01 1.106451613E-01
 1.106451613E-01 1.106451613E-01 1.106451613E-01 1.106451613E-01 1.106451613E-01
 1.106451613E-01 1.106451613E-01 1.106451613E-01 1.106451613E-01 1.106451613E-01
 1.106451613E-01 1.106451613E-01 1.106451613E-01 1.106451613E-01 1.106451613E-01
 1.106451613E-01 1.106451613E-01 1.106451613E-01 1.106451613E-01 1.106451613E-01
 1.106451613E-01 1.106451613E-01 1.106451613E-01 1.106451613E-01 1.106451613E-01
 1.106451613E-01 1.106451613E-01 1.106451613E-01 1.106451613E-01 1.106451613E-01
 1.106451613E-01 1.106451613E-01 1.106451613E-01 1.106451613E-01 1.106451613E-01
 1.106451613E-01 1.106451613E-01 1.106451613E-01 1.106451613E-01 1.106451613E-01
 1.106451613E-01 1.106451613E-01 1.106451613E-01 1.106451613E-01 1.106451613E-01
 1.106451613E-01 1.106451613E-01 1.106451613E-01 1.106451613E-01 1.106451613E-01
 1.106451613E-01 1.106451613E-01 1.106451613E-01 1.106451613E-01 1.106451613E-01
 1.106451613E-01 1.106451613E-01 1.106451613E-01 1.106451613E-01 1.106451613E-01
 1.106451613E-01 1.106451613E-01 1.106451613E-01 1.106451613E-01 1.106451613E-01
 1.106451613E-01 1.106451613E-01 1.106451613E-01 1.106451613E-01 1.106451613E-01
 1.106451613E-01 1.106451613E-01 1.106451613E-01 1.106451613E-01 1.106451613E-01
 1.106451613E-01 1.106451613E-01 1.106451613E-01 1.106451613E-01 1.106451613E-01
 1.106451613E-01 1.106451613E-01 1.106451613E-01 1.106451613E-01 1.106451613E-01
 1.106451613E-01 1.106451613E-01 1.106451613E-01 1.106451613E-01 1.106451613E-01
 1.106451613E-01
 -6.611033175E+01 -6.046058177E+01 -5.683646870E+01 -5.548289632E+01 -5.461256181E+01
 -5.378253996E+01 -5.296047379E+01 -5.212893362E+01 -5.132573366E+01 -5.058725968E+01
 -4.998980353E+01 -4.961540318E+01 -4.931453620E+01 -4.941067058E+01 -4.943539717E+01
 -4.907478432E+01 -4.904798592E+01 -4.928464101E+01 -4.961061245E+01 -5.003034145E+01
 -5.051597379E+01 -5.103485531E+01 -5.154803353E+01 -5.201729807E+01 -5.241822641E+01
 -5.277480583E+01 -5.315856505E+01 -5.361337698E+01 -5.433636638E+01 -5.567575243E+01
 -5.806861424E+01 -5.760680874E+01 -5.451047452E+01 -5.395006305E+01 -5.388126432E+01
 -5.283110514E+01 -5.180059180E+01 -5.199649113E+01 -5.410131108E+01 -5.765704965E+01
 -6.253517858E+01 -6.740066111E+01 -7.058965741E+01 -7.242021076E+01 -7.380923752E+01
 -7.504506317E+01 -7.670813988E+01 -7.896039467E+01 -8.124477032E+01 -8.308266692E+01
 -8.423425673E+01 -8.482699985E+01 -8.616324666E+01 -8.864489800E+01 -9.168675058E+01
 -9.470666727E+01 -9.808534820E+01 -1.023617278E+02 -1.074672554E+02 -1.126963093E+02
 -1.177984082E+02 -1.227748468E+02 -1.276194415E+02 -1.330536783E+02 -1.396589518E+02
 -1.470460092E+02 -1.530769305E+02 -1.588959265E+02 -1.653115299E+02 -1.714344176E+02
 -1.778619478E+02 -1.820072271E+02 -1.854195250E+02 -1.895908323E+02 -1.950333407E+02
 -2.006949886E+02 -2.028748493E+02 -2.060063793E+02 -2.091971968E+02 -2.116432415E+02
 -2.156424443E+02 -2.173161062E+02 -2.217021902E+02 -2.263134000E+02 -2.256449576E+02
 -2.277718902E+02 -2.272400641E+02 -2.262207699E+02 -2.264333897E+02 -2.274522753E+02
 -2.295846477E+02 -2.279225790E+02 -2.302516151E+02 -2.284489654E+02 -2.269264670E+02
 -2.289735465E+02 -2.283293071E+02 -2.271839682E+02 -2.206003119E+02 -2.223743299E+02
 -2.214194266E+02 -2.127747528E+02 -2.133195266E+02 -2.035521334E+02 -1.967046046E+02
 -1.953798105E+02 -1.889074363E+02 -1.876495216E+02 -1.594133838E+02 -1.148070305E+02
 -9.586439314E+01 -1.019554753E+02 -1.204330032E+02 -1.311559914E+02 -1.082545546E+02
 -3.702754232E+01 5.524015832E+01 1.026059016E+02 9.408725193E+01 1.133164765E+02
 1.875201181E+02 2.379048195E+02 2.691133594E+02 3.151331496E+02 3.425932648E+02
 3.488407079E+02 3.374149689E+02 3.095785644E+02 2.776647783E+02 2.389030507E+02
 1.933975315E+02 1.503402247E+02 1.070285983E+02 5.684916694E+01 1.929980361E+01
 5.016968217E+00 -1.398984209E+01 -5.411290456E+01 -8.815275992E+01 -9.177677866E+01
 -8.379083705E+01 -1.091901464E+02 -1.477272973E+02 -1.612266487E+02 -1.888468316E+02
 -2.177943154E+02 -2.175650799E+02 -2.114427120E+02 -2.196359710E+02 -2.351078407E+02
 -2.434978698E+02 -2.437950834E+02 -2.403785963E+02 -2.420828459E+02 -2.435610001E+02
 -2.479853687E+02 -2.503535052E+02 -2.477504649E+02 -2.476645447E+02 -2.439418808E+02
 -2.410771210E+02 -2.372279288E+02 -2.350993443E+02 -2.359854433E+02 -2.356758386E+02
 -2.386850577E+02 -2.375730212E+02 -2.297844413E+02 -2.204006412E+02 -2.154787137E+02
 -2.149185306E+02 -2.157792939E+02 -2.162902077E+02 -2.121197370E+02 -2.084268326E+02
 -2.032436728E+02 -1.958973489E+02 -1.911221582E+02 -1.912708159E+02 -1.930706140E+02
 -1.876656123E+02 -1.799144249E+02 -1.750471804E+02 -1.732335229E+02 -1.700898539E+02
 -1.641966893E+02 -1.592709024E+02 -1.563083844E+02 -1.562070006E+02 -1.528354039E+02
 -1.464895283E+02 -1.417061449E+02 -1.390957982E+02 -1.381272020E+02 -1.338375044E+02