TITLE     = "Fluent Common Fluid Files Data"
VARIABLES = "X"
"Y"
"Z"
"Static Pressure"
DATASETAUXDATA Common.DensityVar="7"
DATASETAUXDATA Common.PressureVar="15"
DATASETAUXDATA Common.TemperatureVar="17"
DATASETAUXDATA Common.TurbulentDynamicViscosityVar="12"
DATASETAUXDATA Common.TurbulentKineticEnergyVar="10"
DATASETAUXDATA Common.UVar="18"
DATASETAUXDATA Common.VectorVarsAreVelocity="True"
DATASETAUXDATA Common.ViscosityVar="11"
DATASETAUXDATA Common.VVar="19"
DATASETAUXDATA Common.WVar="20"
ZONE T="Slice: Z=0.1 (region 2)"
 STRANDID=7, SOLUTIONTIME=0
 I=223, J=1, K=1, ZONETYPE=Ordered
 DATAPACKING=BLOCK
 DT=(DOUBLE DOUBLE DOUBLE DOUBLE )
 2.559605255E+00 2.559597014E+00 2.559588715E+00 2.559580404E+00 2.559572082E+00
 2.559563747E+00 2.559555401E+00 2.559547043E+00 2.559538673E+00 2.559530291E+00
 2.559521862E+00 2.559513370E+00 2.559504861E+00 2.559496338E+00 2.559487630E+00
 2.559476965E+00 2.559466286E+00 2.559455594E+00 2.559444888E+00 2.559434168E+00
 2.559423434E+00 2.559412686E+00 2.559401925E+00 2.559391149E+00 2.559380358E+00
 2.559369553E+00 2.559358734E+00 2.559347900E+00 2.559337053E+00 2.559326192E+00
 2.559315316E+00 2.559303055E+00 2.557579427E+00 2.555821620E+00 2.554079477E+00
 2.552335100E+00 2.550593446E+00 2.548853066E+00 2.547115790E+00 2.545380748E+00
 2.543647168E+00 2.541916399E+00 2.540186108E+00 2.538460589E+00 2.536736683E+00
 2.535014303E+00 2.533294404E+00 2.531577402E+00 2.529863294E+00 2.528148800E+00
 2.526436767E+00 2.524725806E+00 2.523017035E+00 2.521308524E+00 2.519598705E+00
 2.517888813E+00 2.516179089E+00 2.514469816E+00 2.512760798E+00 2.511051564E+00
 2.509341298E+00 2.507629510E+00 2.505917953E+00 2.504208663E+00 2.502497853E+00
 2.500784526E+00 2.499070408E+00 2.497357425E+00 2.495648669E+00 2.493937192E+00
 2.492221007E+00 2.490504985E+00 2.488794671E+00 2.487090178E+00 2.485381372E+00
 2.483671517E+00 2.483666188E+00 2.481947734E+00 2.480237352E+00 2.478530502E+00
 2.476823133E+00 2.475121183E+00 2.473411001E+00 2.471699213E+00 2.469986543E+00
 2.468272207E+00 2.466570051E+00 2.464878384E+00 2.463189110E+00 2.461486994E+00
 2.459788807E+00 2.458089653E+00 2.456393033E+00 2.454699843E+00 2.453005516E+00
 2.451321606E+00 2.449628853E+00 2.447948503E+00 2.446263181E+00 2.444574914E+00
 2.442887716E+00 2.441199906E+00 2.439520423E+00 2.437852319E+00 2.436177578E+00
 2.434494005E+00 2.432811409E+00 2.431142629E+00 2.429493608E+00 2.427839686E+00
 2.426203699E+00 2.424584659E+00 2.423960659E+00 2.423332097E+00 2.422705080E+00
 2.422087567E+00 2.421495754E+00 2.420919435E+00 2.420348749E+00 2.419792536E+00
 2.419281504E+00 2.418814029E+00 2.418384430E+00 2.418023156E+00 2.417744834E+00
 2.417516751E+00 2.417448011E+00 2.417695354E+00 2.417955250E+00 2.418244913E+00
 2.418740953E+00 2.419250175E+00 2.419730892E+00 2.420319169E+00 2.420951202E+00
 2.421553622E+00 2.422132616E+00 2.422733711E+00 2.423375524E+00 2.424053191E+00
 2.424752804E+00 2.425460998E+00 2.426169539E+00 2.427786633E+00 2.429404889E+00
 2.431053025E+00 2.432715676E+00 2.434386314E+00 2.436073579E+00 2.437758781E+00
 2.439453335E+00 2.441157014E+00 2.442859854E+00 2.444573363E+00 2.446287654E+00
 2.448005462E+00 2.449726927E+00 2.451453076E+00 2.453182762E+00 2.454909454E+00
 2.456641804E+00 2.458373924E+00 2.460108835E+00 2.461841900E+00 2.463576557E+00
 2.465312926E+00 2.467050986E+00 2.468785515E+00 2.470524667E+00 2.472258226E+00
 2.473987046E+00 2.475718253E+00 2.477447528E+00 2.479171110E+00 2.480897378E+00
 2.482616845E+00 2.484337353E+00 2.486057496E+00 2.487767527E+00 2.489478233E+00
 2.491179488E+00 2.492881001E+00 2.494577079E+00 2.496267478E+00 2.497956658E+00
 2.499635407E+00 2.501313137E+00 2.502985468E+00 2.504650094E+00 2.506308957E+00
 2.507961070E+00 2.509609974E+00 2.511251273E+00 2.512889677E+00 2.514523094E+00
 2.516148882E+00 2.517772845E+00 2.519396064E+00 2.521011028E+00 2.522623902E+00
 2.524234676E+00 2.525844544E+00 2.527452570E+00 2.529059201E+00 2.529198527E+00
 2.530663465E+00 2.532272273E+00 2.533903265E+00 2.535532877E+00 2.537174411E+00
 2.538826372E+00 2.540487035E+00 2.542160644E+00 2.543849255E+00 2.545553734E+00
 2.547271167E+00 2.548994104E+00 2.550736704E+00 2.552485974E+00 2.554250360E+00
 2.556033100E+00 2.557810291E+00 2.559605255E+00
 1.501281756E+00 1.501215362E+00 1.501148994E+00 1.501082649E+00 1.501016326E+00
 1.500950025E+00 1.500883748E+00 1.500817492E+00 1.500751260E+00 1.500685050E+00
 1.500618862E+00 1.500552698E+00 1.500486556E+00 1.500420438E+00 1.500354319E+00
 1.500287960E+00 1.500221626E+00 1.500155318E+00 1.500089035E+00 1.500022778E+00
 1.499956547E+00 1.499890341E+00 1.499824161E+00 1.499758007E+00 1.499691879E+00
 1.499625777E+00 1.499559700E+00 1.499493650E+00 1.499427626E+00 1.499361627E+00
 1.499295655E+00 1.499229547E+00 1.498814974E+00 1.498547142E+00 1.498273075E+00
 1.498017608E+00 1.497767185E+00 1.497519814E+00 1.497280923E+00 1.497055694E+00
 1.496831299E+00 1.496609928E+00 1.496390044E+00 1.496184383E+00 1.495990150E+00
 1.495802538E+00 1.495619629E+00 1.495440630E+00 1.495266770E+00 1.495085731E+00
 1.494917464E+00 1.494763363E+00 1.494629201E+00 1.494491645E+00 1.494358131E+00
 1.494229262E+00 1.494101364E+00 1.493977796E+00 1.493862627E+00 1.493769760E+00
 1.493678989E+00 1.493568774E+00 1.493467279E+00 1.493371316E+00 1.493277578E+00
 1.493196727E+00 1.493112934E+00 1.493039832E+00 1.492964149E+00 1.492885097E+00
 1.492812355E+00 1.492737337E+00 1.492671405E+00 1.492627418E+00 1.492610256E+00
 1.492579345E+00 1.492579223E+00 1.492532984E+00 1.492489776E+00 1.492461203E+00
 1.492432225E+00 1.492413140E+00 1.492394340E+00 1.492389818E+00 1.492391358E+00
 1.492396322E+00 1.492406584E+00 1.492420317E+00 1.492451805E+00 1.492485933E+00
 1.492543338E+00 1.492606829E+00 1.492679972E+00 1.492759810E+00 1.492847881E+00
 1.492944848E+00 1.493054099E+00 1.493177583E+00 1.493315283E+00 1.493476109E+00
 1.493640294E+00 1.493835354E+00 1.494032110E+00 1.494259767E+00 1.494501175E+00
 1.494774417E+00 1.495072066E+00 1.495392952E+00 1.495761691E+00 1.496203559E+00
 1.496697682E+00 1.497255268E+00 1.497505294E+00 1.497747990E+00 1.498004483E+00
 1.498297427E+00 1.498631994E+00 1.498978110E+00 1.499340435E+00 1.499751535E+00
 1.500220373E+00 1.500719248E+00 1.501251986E+00 1.501839246E+00 1.502476070E+00
 1.503162004E+00 1.503937742E+00 1.504714622E+00 1.505402713E+00 1.506078663E+00
 1.506706584E+00 1.507254822E+00 1.507798510E+00 1.508279031E+00 1.508679812E+00
 1.509096807E+00 1.509536107E+00 1.509949351E+00 1.510306087E+00 1.510611254E+00
 1.510888235E+00 1.511156951E+00 1.511425482E+00 1.511971657E+00 1.512501691E+00
 1.512928705E+00 1.513312065E+00 1.513658244E+00 1.513964513E+00 1.514244365E+00
 1.514489489E+00 1.514708833E+00 1.514898887E+00 1.515055029E+00 1.515202344E+00
 1.515329589E+00 1.515432234E+00 1.515525226E+00 1.515596276E+00 1.515659011E+00
 1.515700219E+00 1.515727987E+00 1.515749222E+00 1.515740265E+00 1.515736629E+00
 1.515723427E+00 1.515713296E+00 1.515663970E+00 1.515624139E+00 1.515550966E+00
 1.515442888E+00 1.515342383E+00 1.515225629E+00 1.515088493E+00 1.514954853E+00
 1.514797347E+00 1.514639170E+00 1.514472134E+00 1.514278762E+00 1.514090518E+00
 1.513875008E+00 1.513655635E+00 1.513417668E+00 1.513165987E+00 1.512912121E+00
 1.512632801E+00 1.512348382E+00 1.512052371E+00 1.511739719E+00 1.511421065E+00
 1.511087389E+00 1.510746546E+00 1.510390456E+00 1.510030432E+00 1.509661711E+00
 1.509278442E+00 1.508893478E+00 1.508509104E+00 1.508108119E+00 1.507703128E+00
 1.507296400E+00 1.506890984E+00 1.506485007E+00 1.506071219E+00 1.506036065E+00
 1.505646926E+00 1.505216764E+00 1.504817408E+00 1.504435827E+00 1.504087170E+00
 1.503761581E+00 1.503458699E+00 1.503163968E+00 1.502880159E+00 1.502622225E+00
 1.502390138E+00 1.502161980E+00 1.501973554E+00 1.501796112E+00 1.501646372E+00
 1.501527665E+00 1.501423597E+00 1.501281756E+00
 1.000000000E-01 1.000000000E-01 1.000000000E-01 1.000000000E-01 1.000000000E-01
 1.000000000E-01 1.000000000E-01 1.000000000E-01 1.000000000E-01 1.000000000E-01
 1.000000000E-01 1.000000000E-01 1.000000000E-01 1.000000000E-01 1.000000000E-01
 1.000000000E-01 1.000000000E-01 1.000000000E-01 1.000000000E-01 1.000000000E-01
 1.000000000E-01 1.000000000E-01 1.000000000E-01 1.000000000E-01 1.000000000E-01
 1.000000000E-01 1.000000000E-01 1.000000000E-01 1.000000000E-01 1.000000000E-01
 1.000000000E-01 1.000000000E-01 1.000000000E-01 1.000000000E-01 1.000000000E-01
 1.000000000E-01 1.000000000E-01 1.000000000E-01 1.000000000E-01 1.000000000E-01
 1.000000000E-01 1.000000000E-01 1.000000000E-01 1.000000000E-01 1.000000000E-01
 1.000000000E-01 1.000000000E-01 1.000000000E-01 1.000000000E-01 1.000000000E-01
 1.000000000E-01 1.000000000E-01 1.000000000E-01 1.000000000E-01 1.000000000E-01
 1.000000000E-01 1.000000000E-01 1.000000000E-01 1.000000000E-01 1.000000000E-01
 1.000000000E-01 1.000000000E-01 1.000000000E-01 1.000000000E-01 1.000000000E-01
 1.000000000E-01 1.000000000E-01 1.000000000E-01 1.000000000E-01 1.000000000E-01
 1.000000000E-01 1.000000000E-01 1.000000000E-01 1.000000000E-01 1.000000000E-01
 1.000000000E-01 1.000000000E-01 1.000000000E-01 1.000000000E-01 1.000000000E-01
 1.000000000E-01 1.000000000E-01 1.000000000E-01 1.000000000E-01 1.000000000E-01
 1.000000000E-01 1.000000000E-01 1.000000000E-01 1.000000000E-01 1.000000000E-01
 1.000000000E-01 1.000000000E-01 1.000000000E-01 1.000000000E-01 1.000000000E-01
 1.000000000E-01 1.000000000E-01 1.000000000E-01 1.000000000E-01 1.000000000E-01
 1.000000000E-01 1.000000000E-01 1.000000000E-01 1.000000000E-01 1.000000000E-01
 1.000000000E-01 1.000000000E-01 1.000000000E-01 1.000000000E-01 1.000000000E-01
 1.000000000E-01 1.000000000E-01 1.000000000E-01 1.000000000E-01 1.000000000E-01
 1.000000000E-01 1.000000000E-01 1.000000000E-01 1.000000000E-01 1.000000000E-01
 1.000000000E-01 1.000000000E-01 1.000000000E-01 1.000000000E-01 1.000000000E-01
 1.000000000E-01 1.000000000E-01 1.000000000E-01 1.000000000E-01 1.000000000E-01
 1.000000000E-01 1.000000000E-01 1.000000000E-01 1.000000000E-01 1.000000000E-01
 1.000000000E-01 1.000000000E-01 1.000000000E-01 1.000000000E-01 1.000000000E-01
 1.000000000E-01 1.000000000E-01 1.000000000E-01 1.000000000E-01 1.000000000E-01
 1.000000000E-01 1.000000000E-01 1.000000000E-01 1.000000000E-01 1.000000000E-01
 1.000000000E-01 1.000000000E-01 1.000000000E-01 1.000000000E-01 1.000000000E-01
 1.000000000E-01 1.000000000E-01 1.000000000E-01 1.000000000E-01 1.000000000E-01
 1.000000000E-01 1.000000000E-01 1.000000000E-01 1.000000000E-01 1.000000000E-01
 1.000000000E-01 1.000000000E-01 1.000000000E-01 1.000000000E-01 1.000000000E-01
 1.000000000E-01 1.000000000E-01 1.000000000E-01 1.000000000E-01 1.000000000E-01
 1.000000000E-01 1.000000000E-01 1.000000000E-01 1.000000000E-01 1.000000000E-01
 1.000000000E-01 1.000000000E-01 1.000000000E-01 1.000000000E-01 1.000000000E-01
 1.000000000E-01 1.000000000E-01 1.000000000E-01 1.000000000E-01 1.000000000E-01
 1.000000000E-01 1.000000000E-01 1.000000000E-01 1.000000000E-01 1.000000000E-01
 1.000000000E-01 1.000000000E-01 1.000000000E-01 1.000000000E-01 1.000000000E-01
 1.000000000E-01 1.000000000E-01 1.000000000E-01 1.000000000E-01 1.000000000E-01
 1.000000000E-01 1.000000000E-01 1.000000000E-01 1.000000000E-01 1.000000000E-01
 1.000000000E-01 1.000000000E-01 1.000000000E-01 1.000000000E-01 1.000000000E-01
 1.000000000E-01 1.000000000E-01 1.000000000E-01 1.000000000E-01 1.000000000E-01
 1.000000000E-01 1.000000000E-01 1.000000000E-01
 -3.762185087E+02 -4.064181756E+02 -3.921962350E+02 -3.870311584E+02 -3.856063270E+02
 -3.848097954E+02 -3.831999336E+02 -3.821693485E+02 -3.813247533E+02 -3.805429999E+02
 -3.797838601E+02 -3.787723871E+02 -3.777503919E+02 -3.774217849E+02 -3.758209923E+02
 -3.739419194E+02 -3.741135670E+02 -3.741272451E+02 -3.752136887E+02 -3.780673687E+02
 -3.808692893E+02 -3.829185451E+02 -3.843908691E+02 -3.869448564E+02 -3.898067227E+02
 -3.926728453E+02 -3.972681669E+02 -4.024332144E+02 -4.079188912E+02 -4.203976580E+02
 -4.747210020E+02 -4.090205060E+02 -2.664180609E+02 -2.219951142E+02 -1.918361530E+02
 -1.604187158E+02 -1.355108945E+02 -1.148749328E+02 -9.615801738E+01 -8.003280606E+01
 -6.797585894E+01 -5.904840279E+01 -5.163310509E+01 -4.435266960E+01 -3.843772954E+01
 -3.468865110E+01 -3.227633673E+01 -3.080196621E+01 -3.133918278E+01 -3.311621899E+01
 -3.292126905E+01 -3.001829681E+01 -2.662542598E+01 -2.513037515E+01 -2.307053679E+01
 -2.091372328E+01 -2.024218591E+01 -2.000055753E+01 -1.605142330E+01 -7.901331465E+00
 -4.401645419E+00 -4.452517184E+00 -3.403056725E+00 -1.357555202E+00 2.531321382E+00
 5.957955176E+00 9.081353502E+00 1.238022555E+01 1.426043176E+01 1.615139057E+01
 1.628630859E+01 1.321397553E+01 1.210073555E+01 1.958822855E+01 2.745542541E+01
 2.589313421E+01 2.588818377E+01 2.121284244E+01 2.049314911E+01 2.087009273E+01
 2.059985897E+01 2.112978560E+01 2.146967316E+01 2.250741281E+01 2.224888601E+01
 2.099528373E+01 2.065439654E+01 2.297361265E+01 2.643229077E+01 3.008298534E+01
 3.616287331E+01 4.213067289E+01 4.815710102E+01 5.435877650E+01 6.076169105E+01
 6.861165442E+01 7.697156005E+01 8.700823051E+01 9.924455398E+01 1.109927185E+02
 1.240976081E+02 1.371644753E+02 1.510299371E+02 1.676818648E+02 1.844613682E+02
 2.004273319E+02 2.146065676E+02 2.311144466E+02 2.530274920E+02 2.752077964E+02
 2.972913615E+02 3.180524120E+02 3.291145514E+02 3.344673570E+02 3.413818993E+02
 3.500279076E+02 3.568770412E+02 3.608794230E+02 3.630023947E+02 3.608399009E+02
 3.519876864E+02 3.352963576E+02 3.061838430E+02 2.587033312E+02 1.896805511E+02
 7.171537967E+01 -1.336163842E+02 -2.487683870E+02 -2.756830868E+02 -4.437947859E+02
 -5.609449253E+02 -5.028457731E+02 -5.416119926E+02 -6.398380751E+02 -5.889342422E+02
 -4.964502952E+02 -5.058095599E+02 -5.877049671E+02 -6.404326160E+02 -6.268477795E+02
 -5.768635988E+02 -5.274134381E+02 -4.985817912E+02 -4.674004234E+02 -4.474789409E+02
 -4.365170269E+02 -4.098749194E+02 -3.901933981E+02 -3.716995945E+02 -3.578456394E+02
 -3.481361495E+02 -3.357938227E+02 -3.282290781E+02 -3.183946375E+02 -3.089980637E+02
 -3.055039416E+02 -3.010874217E+02 -2.974722922E+02 -2.941086592E+02 -2.926794462E+02
 -2.919159092E+02 -2.905197436E+02 -2.906182716E+02 -2.880765484E+02 -2.864334419E+02
 -2.864146628E+02 -2.891309051E+02 -2.908615964E+02 -2.903938686E+02 -2.917796879E+02
 -2.875429833E+02 -2.820439573E+02 -2.800045457E+02 -2.758923272E+02 -2.723957697E+02
 -2.696255736E+02 -2.663503275E+02 -2.643902751E+02 -2.600033084E+02 -2.555891489E+02
 -2.519984918E+02 -2.476690065E+02 -2.436301762E+02 -2.384333321E+02 -2.339428345E+02
 -2.294980508E+02 -2.246387554E+02 -2.205288386E+02 -2.159518833E+02 -2.116265433E+02
 -2.078854333E+02 -2.044836820E+02 -2.011317663E+02 -1.980707668E+02 -1.957701409E+02
 -1.934253817E+02 -1.913294850E+02 -1.900944402E+02 -1.892245675E+02 -1.885016648E+02
 -1.885247382E+02 -1.895840935E+02 -1.916904078E+02 -1.941582598E+02 -1.944043310E+02
 -1.976531339E+02 -2.012559680E+02 -2.052132955E+02 -2.102300417E+02 -2.160079104E+02
 -2.226847116E+02 -2.303433913E+02 -2.384493291E+02 -2.466342052E+02 -2.555616704E+02
 -2.654894230E+02 -2.754291749E+02 -2.857172200E+02 -2.964249038E+02 -3.065950772E+02
 -3.159906268E+02 -3.278437419E+02 -3.762185087E+02
ZONE T="Slice: Z=0.110645 (region 2)"
 STRANDID=7, SOLUTIONTIME=0
 I=221, J=1, K=1, ZONETYPE=Ordered
 DATAPACKING=BLOCK
 DT=(DOUBLE DOUBLE DOUBLE DOUBLE )
 2.566367336E+00 2.566367349E+00 2.566367349E+00 2.566367349E+00 2.566367349E+00
 2.566367349E+00 2.566367349E+00 2.566367349E+00 2.566367349E+00 2.566367349E+00
 2.566367349E+00 2.566367349E+00 2.566367349E+00 2.566367349E+00 2.566367349E+00
 2.566367349E+00 2.566367349E+00 2.566367349E+00 2.566367349E+00 2.566367350E+00
 2.566367350E+00 2.566367350E+00 2.566367350E+00 2.566367350E+00 2.566367350E+00
 2.566367350E+00 2.566367350E+00 2.566367350E+00 2.566367350E+00 2.566367350E+00
 2.566367350E+00 2.566367336E+00 2.564685045E+00 2.562963497E+00 2.561250379E+00
 2.559533624E+00 2.557817090E+00 2.556100555E+00 2.554383976E+00 2.552667375E+00
 2.550950819E+00 2.549234264E+00 2.547517714E+00 2.545801170E+00 2.544084627E+00
 2.542368106E+00 2.540651596E+00 2.538935085E+00 2.537218571E+00 2.535502018E+00
 2.533785512E+00 2.532069047E+00 2.530352581E+00 2.528636116E+00 2.526919225E+00
 2.525201334E+00 2.523483449E+00 2.521765563E+00 2.520047678E+00 2.518328109E+00
 2.516607488E+00 2.514886865E+00 2.513166242E+00 2.511445609E+00 2.509722340E+00
 2.507998822E+00 2.506275303E+00 2.504551784E+00 2.502827618E+00 2.501101323E+00
 2.499375028E+00 2.497648691E+00 2.495922352E+00 2.494194401E+00 2.492465179E+00
 2.490735956E+00 2.489006705E+00 2.487277454E+00 2.485546874E+00 2.483816057E+00
 2.482084351E+00 2.480351930E+00 2.478619456E+00 2.476886704E+00 2.475154133E+00
 2.473421423E+00 2.471688333E+00 2.469955135E+00 2.468222211E+00 2.466489359E+00
 2.464757175E+00 2.463024989E+00 2.461293922E+00 2.459563314E+00 2.457834092E+00
 2.456107229E+00 2.454380849E+00 2.452660103E+00 2.450939459E+00 2.449223687E+00
 2.447509911E+00 2.445799427E+00 2.444096901E+00 2.442404428E+00 2.440722931E+00
 2.439044479E+00 2.437375212E+00 2.435726861E+00 2.434126035E+00 2.432526637E+00
 2.430970803E+00 2.430320046E+00 2.429665905E+00 2.429016842E+00 2.428391498E+00
 2.427799131E+00 2.427220966E+00 2.426646771E+00 2.426101520E+00 2.425614301E+00
 2.425173154E+00 2.424768287E+00 2.424415475E+00 2.424120984E+00 2.423894189E+00
 2.423785535E+00 2.423840283E+00 2.423991711E+00 2.424126609E+00 2.424377379E+00
 2.424748681E+00 2.425097460E+00 2.425535214E+00 2.426078284E+00 2.426623898E+00
 2.427137556E+00 2.427676664E+00 2.428276023E+00 2.428925123E+00 2.429600744E+00
 2.430285740E+00 2.430970803E+00 2.432549704E+00 2.434153880E+00 2.435804177E+00
 2.437473755E+00 2.439157806E+00 2.440858437E+00 2.442559332E+00 2.444275020E+00
 2.445995116E+00 2.447719090E+00 2.449450239E+00 2.451181378E+00 2.452916434E+00
 2.454653290E+00 2.456391648E+00 2.458130876E+00 2.459870159E+00 2.461610193E+00
 2.463350227E+00 2.465090081E+00 2.466829619E+00 2.468569037E+00 2.470307686E+00
 2.472046324E+00 2.473783564E+00 2.475520270E+00 2.477256192E+00 2.478990426E+00
 2.480724637E+00 2.482456874E+00 2.484188892E+00 2.485919795E+00 2.487649485E+00
 2.489378836E+00 2.491104847E+00 2.492830744E+00 2.494556635E+00 2.496282526E+00
 2.498007509E+00 2.499729527E+00 2.501451432E+00 2.503171191E+00 2.504890514E+00
 2.506608492E+00 2.508324301E+00 2.510040075E+00 2.511755849E+00 2.513471621E+00
 2.515185669E+00 2.516898366E+00 2.518610512E+00 2.520320451E+00 2.522030393E+00
 2.523738434E+00 2.525445688E+00 2.527152737E+00 2.528859445E+00 2.530566170E+00
 2.532273213E+00 2.533977758E+00 2.535679168E+00 2.537378437E+00 2.539078129E+00
 2.540783007E+00 2.542492363E+00 2.544203230E+00 2.545914432E+00 2.547624752E+00
 2.549331445E+00 2.551037382E+00 2.552743309E+00 2.554449277E+00 2.556155495E+00
 2.557862010E+00 2.559567753E+00 2.561274182E+00 2.562978589E+00 2.564688336E+00
 2.566367336E+00
 1.504743454E+00 1.504662721E+00 1.504581988E+00 1.504501256E+00 1.504420523E+00
 1.504339791E+00 1.504259058E+00 1.504178326E+00 1.504097593E+00 1.504016861E+00
 1.503936128E+00 1.503855396E+00 1.503774663E+00 1.503693931E+00 1.503613198E+00
 1.503532466E+00 1.503451734E+00 1.503371001E+00 1.503290269E+00 1.503209536E+00
 1.503128804E+00 1.503048071E+00 1.502967339E+00 1.502886606E+00 1.502805874E+00
 1.502725141E+00 1.502644409E+00 1.502563676E+00 1.502482944E+00 1.502402211E+00
 1.502321479E+00 1.502240746E+00 1.501824920E+00 1.501603280E+00 1.501355493E+00
 1.501117087E+00 1.500877151E+00 1.500637219E+00 1.500397567E+00 1.500158066E+00
 1.499918284E+00 1.499678501E+00 1.499438678E+00 1.499198812E+00 1.498958942E+00
 1.498718914E+00 1.498478810E+00 1.498238706E+00 1.497998622E+00 1.497758776E+00
 1.497518600E+00 1.497278171E+00 1.497037743E+00 1.496797314E+00 1.496559942E+00
 1.496329911E+00 1.496099845E+00 1.495869779E+00 1.495639713E+00 1.495422580E+00
 1.495213962E+00 1.495005352E+00 1.494796742E+00 1.494588208E+00 1.494402728E+00
 1.494219573E+00 1.494036419E+00 1.493853264E+00 1.493676322E+00 1.493521518E+00
 1.493366718E+00 1.493212356E+00 1.493058015E+00 1.492922926E+00 1.492805219E+00
 1.492687511E+00 1.492570253E+00 1.492453000E+00 1.492357307E+00 1.492266040E+00
 1.492193440E+00 1.492140745E+00 1.492089895E+00 1.492049469E+00 1.492001888E+00
 1.491959856E+00 1.491938163E+00 1.491947328E+00 1.491979625E+00 1.492015102E+00
 1.492075062E+00 1.492134996E+00 1.492221648E+00 1.492316871E+00 1.492434564E+00
 1.492583192E+00 1.492736724E+00 1.492944546E+00 1.493152851E+00 1.493398185E+00
 1.493657234E+00 1.493936935E+00 1.494261687E+00 1.494635275E+00 1.495055588E+00
 1.495487826E+00 1.495954342E+00 1.496489990E+00 1.497154385E+00 1.497822199E+00
 1.498586061E+00 1.498960838E+00 1.499329673E+00 1.499707379E+00 1.500123167E+00
 1.500584730E+00 1.501063964E+00 1.501547950E+00 1.502064324E+00 1.502635771E+00
 1.503243485E+00 1.503875978E+00 1.504538895E+00 1.505229709E+00 1.505945631E+00
 1.506688694E+00 1.507437638E+00 1.508173160E+00 1.508911922E+00 1.509619774E+00
 1.510272502E+00 1.510937044E+00 1.511548307E+00 1.512066479E+00 1.512582781E+00
 1.513130487E+00 1.513653860E+00 1.514106043E+00 1.514482838E+00 1.514810396E+00
 1.515118181E+00 1.515425709E+00 1.516156908E+00 1.516831258E+00 1.517382852E+00
 1.517873152E+00 1.518310975E+00 1.518679197E+00 1.519046586E+00 1.519336941E+00
 1.519599778E+00 1.519835921E+00 1.520012121E+00 1.520188321E+00 1.520319511E+00
 1.520425059E+00 1.520502574E+00 1.520557542E+00 1.520610444E+00 1.520615064E+00
 1.520619247E+00 1.520597396E+00 1.520559154E+00 1.520514248E+00 1.520441781E+00
 1.520369166E+00 1.520269453E+00 1.520161294E+00 1.520041838E+00 1.519901021E+00
 1.519760013E+00 1.519596555E+00 1.519430953E+00 1.519251912E+00 1.519059643E+00
 1.518864675E+00 1.518643765E+00 1.518422256E+00 1.518200721E+00 1.517979186E+00
 1.517750316E+00 1.517499229E+00 1.517247624E+00 1.516983157E+00 1.516716123E+00
 1.516439936E+00 1.516150087E+00 1.515860094E+00 1.515570102E+00 1.515280110E+00
 1.514979756E+00 1.514671594E+00 1.514360823E+00 1.514038947E+00 1.513717071E+00
 1.513386593E+00 1.513052671E+00 1.512717080E+00 1.512378200E+00 1.512039381E+00
 1.511698637E+00 1.511346143E+00 1.510981089E+00 1.510608138E+00 1.510236760E+00
 1.509887671E+00 1.509561866E+00 1.509244387E+00 1.508928915E+00 1.508608652E+00
 1.508269342E+00 1.507926364E+00 1.507583544E+00 1.507240927E+00 1.506899739E+00
 1.506560111E+00 1.506214876E+00 1.505874318E+00 1.505524975E+00 1.505199044E+00
 1.504743454E+00
 1.106451613E-01 1.106451613E-01 1.106451613E-01 1.106451613E-01 1.106451613E-01
 1.106451613E-01 1.106451613E-01 1.106451613E-01 1.106451613E-01 1.106451613E-01
 1.106451613E-01 1.106451613E-01 1.106451613E-01 1.106451613E-01 1.106451613E-01
 1.106451613E-01 1.106451613E-01 1.106451613E-01 1.106451613E-01 1.106451613E-01
 1.106451613E-01 1.106451613E-01 1.106451613E-01 1.106451613E-01 1.106451613E-01
 1.106451613E-01 1.106451613E-01 1.106451613E-01 1.106451613E-01 1.106451613E-01
 1.106451613E-01 1.106451613E-01 1.106451613E-01 1.106451613E-01 1.106451613E-01
 1.106451613E-01 1.106451613E-01 1.106451613E-01 1.106451613E-01 1.106451613E-01
 1.106451613E-01 1.106451613E-01 1.106451613E-01 1.106451613E-01 1.106451613E-01
 1.106451613E-01 1.106451613E-01 1.106451613E-01 1.106451613E-01 1.106451613E-01
 1.106451613E-01 1.106451613E-01 1.106451613E-01 1.106451613E-01 1.106451613E-01
 1.106451613E-01 1.106451613E-01 1.106451613E-01 1.106451613E-01 1.106451613E-01
 1.106451613E-01 1.106451613E-01 1.106451613E-01 1.106451613E-01 1.106451613E-01
 1.106451613E-01 1.106451613E-01 1.106451613E-01 1.106451613E-01 1.106451613E-01
 1.106451613E-01 1.106451613E-01 1.106451613E-01 1.106451613E-01 1.106451613E-01
 1.106451613E-01 1.106451613E-01 1.106451613E-01 1.106451613E-01 1.106451613E-01
 1.106451613E-01 1.106451613E-01 1.106451613E-01 1.106451613E-01 1.106451613E-01
 1.106451613E-01 1.106451613E-01 1.106451613E-01 1.106451613E-01 1.106451613E-01
 1.106451613E-01 1.106451613E-01 1.106451613E-01 1.106451613E-01 1.106451613E-01
 1.106451613E-01 1.106451613E-01 1.106451613E-01 1.106451613E-01 1.106451613E-01
 1.106451613E-01 1.106451613E-01 1.106451613E-01 1.106451613E-01 1.106451613E-01
 1.106451613E-01 1.106451613E-01 1.106451613E-01 1.106451613E-01 1.106451613E-01
 1.106451613E-01 1.106451613E-01 1.106451613E-01 1.106451613E-01 1.106451613E-01
 1.106451613E-01 1.106451613E-01 1.106451613E-01 1.106451613E-01 1.106451613E-01
 1.106451613E-01 1.106451613E-01 1.106451613E-01 1.106451613E-01 1.106451613E-01
 1.106451613E-01 1.106451613E-01 1.106451613E-01 1.106451613E-01 1.106451613E-01
 1.106451613E-01 1.106451613E-01 1.106451613E-01 1.106451613E-01 1.106451613E-01
 1.106451613E-01 1.106451613E-01 1.106451613E-01 1.106451613E-01 1.106451613E-01
 1.106451613E-01 1.106451613E-01 1.106451613E-01 1.106451613E-01 1.106451613E-01
 1.106451613E-01 1.106451613E-01 1.106451613E-01 1.106451613E-01 1.106451613E-01
 1.106451613E-01 1.106451613E-01 1.106451613E-01 1.106451613E-01 1.106451613E-01
 1.106451613E-01 1.106451613E-01 1.106451613E-01 1.106451613E-01 1.106451613E-01
 1.106451613E-01 1.106451613E-01 1.106451613E-01 1.106451613E-01 1.106451613E-01
 1.106451613E-01 1.106451613E-01 1.106451613E-01 1.106451613E-01 1.106451613E-01
 1.106451613E-01 1.106451613E-01 1.106451613E-01 1.106451613E-01 1.106451613E-01
 1.106451613E-01 1.106451613E-01 1.106451613E-01 1.106451613E-01 1.106451613E-01
 1.106451613E-01 1.106451613E-01 1.106451613E-01 1.106451613E-01 1.106451613E-01
 1.106451613E-01 1.106451613E-01 1.106451613E-01 1.106451613E-01 1.106451613E-01
 1.106451613E-01 1.106451613E-01 1.106451613E-01 1.106451613E-01 1.106451613E-01
 1.106451613E-01 1.106451613E-01 1.106451613E-01 1.106451613E-01 1.106451613E-01
 1.106451613E-01 1.106451613E-01 1.106451613E-01 1.106451613E-01 1.106451613E-01
 1.106451613E-01 1.106451613E-01 1.106451613E-01 1.106451613E-01 1.106451613E-01
 1.106451613E-01 1.106451613E-01 1.106451613E-01 1.106451613E-01 1.106451613E-01
 1.106451613E-01 1.106451613E-01 1.106451613E-01 1.106451613E-01 1.106451613E-01
 1.106451613E-01
 -3.079589110E+02 -3.232524198E+02 -3.116466691E+02 -3.059112539E+02 -3.035598315E+02
 -3.020912680E+02 -3.001090429E+02 -2.988772872E+02 -2.978565574E+02 -2.969433802E+02
 -2.955265183E+02 -2.933515177E+02 -2.915966917E+02 -2.904197037E+02 -2.887496775E+02
 -2.869439589E+02 -2.862920637E+02 -2.853618595E+02 -2.860212945E+02 -2.883227097E+02
 -2.898749216E+02 -2.918639350E+02 -2.940118604E+02 -2.965925708E+02 -2.999071714E+02
 -3.037141213E+02 -3.081121819E+02 -3.135431522E+02 -3.211071830E+02 -3.355491722E+02
 -3.800027185E+02 -3.421594990E+02 -2.266819784E+02 -1.777567486E+02 -1.592323977E+02
 -1.371116221E+02 -1.189900233E+02 -1.018249816E+02 -8.591708175E+01 -7.324526369E+01
 -6.340262070E+01 -5.524646027E+01 -4.818624214E+01 -4.186290400E+01 -3.689800178E+01
 -3.327393092E+01 -3.078806566E+01 -2.917155902E+01 -2.827835839E+01 -2.802871641E+01
 -2.884948788E+01 -2.940495680E+01 -2.973562124E+01 -3.033116745E+01 -2.945838238E+01
 -2.852258724E+01 -2.884960762E+01 -3.009850938E+01 -2.901902142E+01 -2.467030097E+01
 -2.199183492E+01 -2.170034969E+01 -2.279280850E+01 -2.134250344E+01 -1.689145095E+01
 -1.454505559E+01 -1.357092335E+01 -1.323244423E+01 -1.119894837E+01 -8.026641500E+00
 -7.199983546E+00 -8.766751638E+00 -8.359415798E+00 -2.288731786E+00 1.662005285E+00
 1.097472313E+00 -8.301535396E-01 -7.224545413E-01 1.945732681E-01 6.553537616E-01
 4.280610623E+00 7.147846045E+00 8.710179081E+00 8.136935239E+00 6.117129869E+00
 6.250584020E+00 1.026652939E+01 1.627107438E+01 2.071694126E+01 2.673346059E+01
 3.248505041E+01 3.819010139E+01 4.509978026E+01 5.220904583E+01 6.189409351E+01
 7.108640566E+01 8.314354612E+01 9.664680285E+01 1.091157622E+02 1.227357200E+02
 1.344182296E+02 1.481142085E+02 1.654432946E+02 1.849371414E+02 2.024595248E+02
 2.160332992E+02 2.321314399E+02 2.566313835E+02 2.797898316E+02 2.992686240E+02
 3.182958780E+02 3.296087231E+02 3.345825374E+02 3.382802143E+02 3.430659077E+02
 3.452118660E+02 3.434814734E+02 3.372741257E+02 3.235455115E+02 3.019482190E+02
 2.730194217E+02 2.323665467E+02 1.753450147E+02 1.032116206E+02 -6.238315950E+00
 -1.638425915E+02 -2.586299140E+02 -2.767209336E+02 -4.176662435E+02 -5.740862992E+02
 -5.504763550E+02 -6.169108372E+02 -7.700197113E+02 -7.191328182E+02 -5.932195147E+02
 -6.206169020E+02 -7.609268415E+02 -8.510814414E+02 -8.368201890E+02 -7.634506137E+02
 -6.839431196E+02 -6.284540334E+02 -5.942637195E+02 -5.891319669E+02 -5.799108975E+02
 -5.445912336E+02 -5.196802168E+02 -4.940769486E+02 -4.771852076E+02 -4.666897223E+02
 -4.486188575E+02 -4.406456121E+02 -4.285857127E+02 -4.153685188E+02 -4.101970624E+02
 -4.024238752E+02 -3.952678222E+02 -3.870732795E+02 -3.818364115E+02 -3.775954175E+02
 -3.713918334E+02 -3.682626307E+02 -3.629539225E+02 -3.584150815E+02 -3.545158131E+02
 -3.516307559E+02 -3.481209513E+02 -3.426114363E+02 -3.388776737E+02 -3.315316859E+02
 -3.240934340E+02 -3.184483547E+02 -3.114980817E+02 -3.057612738E+02 -2.998376379E+02
 -2.940888574E+02 -2.891712035E+02 -2.823008677E+02 -2.757858684E+02 -2.702078931E+02
 -2.654061938E+02 -2.606445473E+02 -2.549280369E+02 -2.497708884E+02 -2.447702854E+02
 -2.406160687E+02 -2.367753868E+02 -2.323002185E+02 -2.283861046E+02 -2.253216961E+02
 -2.228731194E+02 -2.206577185E+02 -2.187183664E+02 -2.169382734E+02 -2.153031790E+02
 -2.142655752E+02 -2.139136783E+02 -2.138750120E+02 -2.139988322E+02 -2.148710195E+02
 -2.169554058E+02 -2.198600686E+02 -2.224679796E+02 -2.246418118E+02 -2.265389185E+02
 -2.287040005E+02 -2.319206956E+02 -2.362408986E+02 -2.412701902E+02 -2.468436484E+02
 -2.520001379E+02 -2.563133936E+02 -2.607168229E+02 -2.652431015E+02 -2.690712106E+02
 -2.723797110E+02 -2.746892770E+02 -2.757152172E+02 -2.754331722E+02 -2.796649340E+02
 -3.079589110E+02
ZONE T="Slice: Z=0.12129 (region 2)"
 STRANDID=7, SOLUTIONTIME=0