TITLE     = "Fluent Common Fluid Files Data"
VARIABLES = "X"
"Y"
"Z"
"Static Pressure"
DATASETAUXDATA Common.DensityVar="7"
DATASETAUXDATA Common.PressureVar="15"
DATASETAUXDATA Common.TemperatureVar="17"
DATASETAUXDATA Common.TurbulentDynamicViscosityVar="12"
DATASETAUXDATA Common.TurbulentKineticEnergyVar="10"
DATASETAUXDATA Common.UVar="18"
DATASETAUXDATA Common.VectorVarsAreVelocity="True"
DATASETAUXDATA Common.ViscosityVar="11"
DATASETAUXDATA Common.VVar="19"
DATASETAUXDATA Common.WVar="20"
ZONE T="Slice: Z=0.1 (region 1)"
 STRANDID=7, SOLUTIONTIME=0
 I=223, J=1, K=1, ZONETYPE=Ordered
 DATAPACKING=BLOCK
 DT=(DOUBLE DOUBLE DOUBLE DOUBLE )
 2.559303055E+00 2.559315316E+00 2.559326192E+00 2.559337053E+00 2.559347900E+00
 2.559358734E+00 2.559369553E+00 2.559380358E+00 2.559391149E+00 2.559401925E+00
 2.559412686E+00 2.559423434E+00 2.559434168E+00 2.559444888E+00 2.559455594E+00
 2.559466286E+00 2.559476965E+00 2.559487630E+00 2.559496338E+00 2.559504861E+00
 2.559513370E+00 2.559521862E+00 2.559530291E+00 2.559538673E+00 2.559547043E+00
 2.559555401E+00 2.559563747E+00 2.559572082E+00 2.559580404E+00 2.559588715E+00
 2.559597014E+00 2.559605255E+00 2.557810291E+00 2.556033100E+00 2.554250360E+00
 2.552485974E+00 2.550736704E+00 2.548994104E+00 2.547271167E+00 2.545553734E+00
 2.543849255E+00 2.542160644E+00 2.540487035E+00 2.538826372E+00 2.537174411E+00
 2.535532877E+00 2.533903265E+00 2.532272273E+00 2.530663465E+00 2.529198527E+00
 2.529059201E+00 2.527452570E+00 2.525844544E+00 2.524234676E+00 2.522623902E+00
 2.521011028E+00 2.519396064E+00 2.517772845E+00 2.516148882E+00 2.514523094E+00
 2.512889677E+00 2.511251273E+00 2.509609974E+00 2.507961070E+00 2.506308957E+00
 2.504650094E+00 2.502985468E+00 2.501313137E+00 2.499635407E+00 2.497956658E+00
 2.496267478E+00 2.494577079E+00 2.492881001E+00 2.491179488E+00 2.489478233E+00
 2.487767527E+00 2.486057496E+00 2.484337353E+00 2.482616845E+00 2.480897378E+00
 2.479171110E+00 2.477447528E+00 2.475718253E+00 2.473987046E+00 2.472258226E+00
 2.470524667E+00 2.468785515E+00 2.467050986E+00 2.465312926E+00 2.463576557E+00
 2.461841900E+00 2.460108835E+00 2.458373924E+00 2.456641804E+00 2.454909454E+00
 2.453182762E+00 2.451453076E+00 2.449726927E+00 2.448005462E+00 2.446287654E+00
 2.444573363E+00 2.442859854E+00 2.441157014E+00 2.439453335E+00 2.437758781E+00
 2.436073579E+00 2.434386314E+00 2.432715676E+00 2.431053025E+00 2.429404889E+00
 2.427786633E+00 2.426169539E+00 2.425460998E+00 2.424752804E+00 2.424053191E+00
 2.423375524E+00 2.422733711E+00 2.422132616E+00 2.421553622E+00 2.420951202E+00
 2.420319169E+00 2.419730892E+00 2.419250175E+00 2.418740953E+00 2.418244913E+00
 2.417955250E+00 2.417695354E+00 2.417448011E+00 2.417516751E+00 2.417744834E+00
 2.418023156E+00 2.418384430E+00 2.418814029E+00 2.419281504E+00 2.419792536E+00
 2.420348749E+00 2.420919435E+00 2.421495754E+00 2.422087567E+00 2.422705080E+00
 2.423332097E+00 2.423960659E+00 2.424584659E+00 2.426203699E+00 2.427839686E+00
 2.429493608E+00 2.431142629E+00 2.432811409E+00 2.434494005E+00 2.436177578E+00
 2.437852319E+00 2.439520423E+00 2.441199906E+00 2.442887716E+00 2.444574914E+00
 2.446263181E+00 2.447948503E+00 2.449628853E+00 2.451321606E+00 2.453005516E+00
 2.454699843E+00 2.456393033E+00 2.458089653E+00 2.459788807E+00 2.461486994E+00
 2.463189110E+00 2.464878384E+00 2.466570051E+00 2.468272207E+00 2.469986543E+00
 2.471699213E+00 2.473411001E+00 2.475121183E+00 2.476823133E+00 2.478530502E+00
 2.480237352E+00 2.481947734E+00 2.483666188E+00 2.483671517E+00 2.485381372E+00
 2.487090178E+00 2.488794671E+00 2.490504985E+00 2.492221007E+00 2.493937192E+00
 2.495648669E+00 2.497357425E+00 2.499070408E+00 2.500784526E+00 2.502497853E+00
 2.504208663E+00 2.505917953E+00 2.507629510E+00 2.509341298E+00 2.511051564E+00
 2.512760798E+00 2.514469816E+00 2.516179089E+00 2.517888813E+00 2.519598705E+00
 2.521308524E+00 2.523017035E+00 2.524725806E+00 2.526436767E+00 2.528148800E+00
 2.529863294E+00 2.531577402E+00 2.533294404E+00 2.535014303E+00 2.536736683E+00
 2.538460589E+00 2.540186108E+00 2.541916399E+00 2.543647168E+00 2.545380748E+00
 2.547115790E+00 2.548853066E+00 2.550593446E+00 2.552335100E+00 2.554079477E+00
 2.555821620E+00 2.557579427E+00 2.559303055E+00
 -1.499229547E+00 -1.499295655E+00 -1.499361627E+00 -1.499427626E+00 -1.499493650E+00
 -1.499559700E+00 -1.499625777E+00 -1.499691879E+00 -1.499758007E+00 -1.499824161E+00
 -1.499890341E+00 -1.499956547E+00 -1.500022778E+00 -1.500089035E+00 -1.500155318E+00
 -1.500221626E+00 -1.500287960E+00 -1.500354319E+00 -1.500420438E+00 -1.500486556E+00
 -1.500552698E+00 -1.500618862E+00 -1.500685050E+00 -1.500751260E+00 -1.500817492E+00
 -1.500883748E+00 -1.500950025E+00 -1.501016326E+00 -1.501082649E+00 -1.501148994E+00
 -1.501215362E+00 -1.501281756E+00 -1.501423597E+00 -1.501527665E+00 -1.501646372E+00
 -1.501796112E+00 -1.501973554E+00 -1.502161980E+00 -1.502390138E+00 -1.502622225E+00
 -1.502880159E+00 -1.503163968E+00 -1.503458699E+00 -1.503761581E+00 -1.504087170E+00
 -1.504435827E+00 -1.504817408E+00 -1.505216764E+00 -1.505646926E+00 -1.506036065E+00
 -1.506071219E+00 -1.506485007E+00 -1.506890984E+00 -1.507296400E+00 -1.507703128E+00
 -1.508108119E+00 -1.508509104E+00 -1.508893478E+00 -1.509278442E+00 -1.509661711E+00
 -1.510030432E+00 -1.510390456E+00 -1.510746546E+00 -1.511087389E+00 -1.511421065E+00
 -1.511739719E+00 -1.512052371E+00 -1.512348382E+00 -1.512632801E+00 -1.512912121E+00
 -1.513165987E+00 -1.513417668E+00 -1.513655635E+00 -1.513875008E+00 -1.514090518E+00
 -1.514278762E+00 -1.514472134E+00 -1.514639170E+00 -1.514797347E+00 -1.514954853E+00
 -1.515088493E+00 -1.515225629E+00 -1.515342383E+00 -1.515442888E+00 -1.515550966E+00
 -1.515624139E+00 -1.515663970E+00 -1.515713296E+00 -1.515723427E+00 -1.515736629E+00
 -1.515740265E+00 -1.515749222E+00 -1.515727987E+00 -1.515700219E+00 -1.515659011E+00
 -1.515596276E+00 -1.515525226E+00 -1.515432234E+00 -1.515329589E+00 -1.515202344E+00
 -1.515055029E+00 -1.514898887E+00 -1.514708833E+00 -1.514489489E+00 -1.514244365E+00
 -1.513964513E+00 -1.513658244E+00 -1.513312065E+00 -1.512928705E+00 -1.512501691E+00
 -1.511971657E+00 -1.511425482E+00 -1.511156951E+00 -1.510888235E+00 -1.510611254E+00
 -1.510306087E+00 -1.509949351E+00 -1.509536107E+00 -1.509096807E+00 -1.508679812E+00
 -1.508279031E+00 -1.507798510E+00 -1.507254822E+00 -1.506706584E+00 -1.506078663E+00
 -1.505402713E+00 -1.504714622E+00 -1.503937742E+00 -1.503162004E+00 -1.502476070E+00
 -1.501839246E+00 -1.501251986E+00 -1.500719248E+00 -1.500220373E+00 -1.499751535E+00
 -1.499340435E+00 -1.498978110E+00 -1.498631994E+00 -1.498297427E+00 -1.498004483E+00
 -1.497747990E+00 -1.497505294E+00 -1.497255268E+00 -1.496697682E+00 -1.496203559E+00
 -1.495761691E+00 -1.495392952E+00 -1.495072066E+00 -1.494774417E+00 -1.494501175E+00
 -1.494259767E+00 -1.494032110E+00 -1.493835354E+00 -1.493640294E+00 -1.493476109E+00
 -1.493315283E+00 -1.493177583E+00 -1.493054099E+00 -1.492944848E+00 -1.492847881E+00
 -1.492759810E+00 -1.492679972E+00 -1.492606829E+00 -1.492543338E+00 -1.492485933E+00
 -1.492451805E+00 -1.492420317E+00 -1.492406584E+00 -1.492396322E+00 -1.492391358E+00
 -1.492389818E+00 -1.492394340E+00 -1.492413140E+00 -1.492432225E+00 -1.492461203E+00
 -1.492489776E+00 -1.492532984E+00 -1.492579223E+00 -1.492579345E+00 -1.492610256E+00
 -1.492627418E+00 -1.492671405E+00 -1.492737337E+00 -1.492812355E+00 -1.492885097E+00
 -1.492964149E+00 -1.493039832E+00 -1.493112934E+00 -1.493196727E+00 -1.493277578E+00
 -1.493371316E+00 -1.493467279E+00 -1.493568774E+00 -1.493678989E+00 -1.493769760E+00
 -1.493862627E+00 -1.493977796E+00 -1.494101364E+00 -1.494229262E+00 -1.494358131E+00
 -1.494491645E+00 -1.494629201E+00 -1.494763363E+00 -1.494917464E+00 -1.495085731E+00
 -1.495266770E+00 -1.495440630E+00 -1.495619629E+00 -1.495802538E+00 -1.495990150E+00
 -1.496184383E+00 -1.496390044E+00 -1.496609928E+00 -1.496831299E+00 -1.497055694E+00
 -1.497280923E+00 -1.497519814E+00 -1.497767185E+00 -1.498017608E+00 -1.498273075E+00
 -1.498547142E+00 -1.498814974E+00 -1.499229547E+00
 1.000000000E-01 1.000000000E-01 1.000000000E-01 1.000000000E-01 1.000000000E-01
 1.000000000E-01 1.000000000E-01 1.000000000E-01 1.000000000E-01 1.000000000E-01
 1.000000000E-01 1.000000000E-01 1.000000000E-01 1.000000000E-01 1.000000000E-01
 1.000000000E-01 1.000000000E-01 1.000000000E-01 1.000000000E-01 1.000000000E-01
 1.000000000E-01 1.000000000E-01 1.000000000E-01 1.000000000E-01 1.000000000E-01
 1.000000000E-01 1.000000000E-01 1.000000000E-01 1.000000000E-01 1.000000000E-01
 1.000000000E-01 1.000000000E-01 1.000000000E-01 1.000000000E-01 1.000000000E-01
 1.000000000E-01 1.000000000E-01 1.000000000E-01 1.000000000E-01 1.000000000E-01
 1.000000000E-01 1.000000000E-01 1.000000000E-01 1.000000000E-01 1.000000000E-01
 1.000000000E-01 1.000000000E-01 1.000000000E-01 1.000000000E-01 1.000000000E-01
 1.000000000E-01 1.000000000E-01 1.000000000E-01 1.000000000E-01 1.000000000E-01
 1.000000000E-01 1.000000000E-01 1.000000000E-01 1.000000000E-01 1.000000000E-01
 1.000000000E-01 1.000000000E-01 1.000000000E-01 1.000000000E-01 1.000000000E-01
 1.000000000E-01 1.000000000E-01 1.000000000E-01 1.000000000E-01 1.000000000E-01
 1.000000000E-01 1.000000000E-01 1.000000000E-01 1.000000000E-01 1.000000000E-01
 1.000000000E-01 1.000000000E-01 1.000000000E-01 1.000000000E-01 1.000000000E-01
 1.000000000E-01 1.000000000E-01 1.000000000E-01 1.000000000E-01 1.000000000E-01
 1.000000000E-01 1.000000000E-01 1.000000000E-01 1.000000000E-01 1.000000000E-01
 1.000000000E-01 1.000000000E-01 1.000000000E-01 1.000000000E-01 1.000000000E-01
 1.000000000E-01 1.000000000E-01 1.000000000E-01 1.000000000E-01 1.000000000E-01
 1.000000000E-01 1.000000000E-01 1.000000000E-01 1.000000000E-01 1.000000000E-01
 1.000000000E-01 1.000000000E-01 1.000000000E-01 1.000000000E-01 1.000000000E-01
 1.000000000E-01 1.000000000E-01 1.000000000E-01 1.000000000E-01 1.000000000E-01
 1.000000000E-01 1.000000000E-01 1.000000000E-01 1.000000000E-01 1.000000000E-01
 1.000000000E-01 1.000000000E-01 1.000000000E-01 1.000000000E-01 1.000000000E-01
 1.000000000E-01 1.000000000E-01 1.000000000E-01 1.000000000E-01 1.000000000E-01
 1.000000000E-01 1.000000000E-01 1.000000000E-01 1.000000000E-01 1.000000000E-01
 1.000000000E-01 1.000000000E-01 1.000000000E-01 1.000000000E-01 1.000000000E-01
 1.000000000E-01 1.000000000E-01 1.000000000E-01 1.000000000E-01 1.000000000E-01
 1.000000000E-01 1.000000000E-01 1.000000000E-01 1.000000000E-01 1.000000000E-01
 1.000000000E-01 1.000000000E-01 1.000000000E-01 1.000000000E-01 1.000000000E-01
 1.000000000E-01 1.000000000E-01 1.000000000E-01 1.000000000E-01 1.000000000E-01
 1.000000000E-01 1.000000000E-01 1.000000000E-01 1.000000000E-01 1.000000000E-01
 1.000000000E-01 1.000000000E-01 1.000000000E-01 1.000000000E-01 1.000000000E-01
 1.000000000E-01 1.000000000E-01 1.000000000E-01 1.000000000E-01 1.000000000E-01
 1.000000000E-01 1.000000000E-01 1.000000000E-01 1.000000000E-01 1.000000000E-01
 1.000000000E-01 1.000000000E-01 1.000000000E-01 1.000000000E-01 1.000000000E-01
 1.000000000E-01 1.000000000E-01 1.000000000E-01 1.000000000E-01 1.000000000E-01
 1.000000000E-01 1.000000000E-01 1.000000000E-01 1.000000000E-01 1.000000000E-01
 1.000000000E-01 1.000000000E-01 1.000000000E-01 1.000000000E-01 1.000000000E-01
 1.000000000E-01 1.000000000E-01 1.000000000E-01 1.000000000E-01 1.000000000E-01
 1.000000000E-01 1.000000000E-01 1.000000000E-01 1.000000000E-01 1.000000000E-01
 1.000000000E-01 1.000000000E-01 1.000000000E-01 1.000000000E-01 1.000000000E-01
 1.000000000E-01 1.000000000E-01 1.000000000E-01 1.000000000E-01 1.000000000E-01
 1.000000000E-01 1.000000000E-01 1.000000000E-01
 1.805990813E+01 2.461654832E+01 2.641170241E+01 2.720994498E+01 2.775619994E+01
 2.823175696E+01 2.880288957E+01 2.926848041E+01 2.928091062E+01 3.023433467E+01
 3.150746063E+01 3.199334719E+01 3.269716324E+01 3.343112875E+01 3.385071913E+01
 3.390755433E+01 3.386685971E+01 3.358892943E+01 3.330960180E+01 3.291882900E+01
 3.195944163E+01 3.167993022E+01 3.161786352E+01 3.093488114E+01 3.078583633E+01
 3.066599382E+01 3.024635093E+01 2.989525453E+01 2.945970475E+01 2.821752721E+01
 2.395017419E+01 2.706396072E+01 3.372279480E+01 3.312134029E+01 3.219136639E+01
 3.192387423E+01 3.232230191E+01 3.262125131E+01 3.277777329E+01 3.309497647E+01
 3.275939447E+01 3.251540280E+01 3.266702413E+01 3.277656063E+01 3.185485633E+01
 2.987375347E+01 2.715455960E+01 2.289879364E+01 1.786076006E+01 1.346790778E+01
 1.303220760E+01 7.545072949E+00 1.476000214E+00 -5.275161658E+00 -1.340693350E+01
 -2.249334190E+01 -3.153879612E+01 -4.109236402E+01 -5.169547027E+01 -6.258499253E+01
 -7.315075589E+01 -8.430111613E+01 -9.542144263E+01 -1.061249821E+02 -1.166259861E+02
 -1.276789258E+02 -1.382897615E+02 -1.469664106E+02 -1.565813177E+02 -1.647851930E+02
 -1.726507010E+02 -1.818398520E+02 -1.883735343E+02 -1.948471114E+02 -2.000364231E+02
 -2.064482125E+02 -2.127656923E+02 -2.152623886E+02 -2.203148819E+02 -2.247630409E+02
 -2.300893229E+02 -2.365050481E+02 -2.397958557E+02 -2.495071732E+02 -2.573952399E+02
 -2.548964119E+02 -2.555937761E+02 -2.540731744E+02 -2.516402983E+02 -2.535207233E+02
 -2.588799596E+02 -2.650543237E+02 -2.678075906E+02 -2.747966700E+02 -2.789981954E+02
 -2.834525784E+02 -2.914317532E+02 -2.987690603E+02 -3.062232268E+02 -3.104666417E+02
 -3.227062336E+02 -3.352825680E+02 -3.421603409E+02 -3.544387633E+02 -3.613374850E+02
 -3.729127880E+02 -3.896750381E+02 -4.053624824E+02 -4.238491165E+02 -4.131869597E+02
 -4.029603331E+02 -4.063085841E+02 -4.189795285E+02 -4.648549784E+02 -5.085492327E+02
 -4.981476634E+02 -4.002848452E+02 -2.593786231E+02 -1.857286999E+02 -2.414388268E+02
 -2.699293357E+02 -1.304580726E+02 -1.804965168E+01 4.235262021E+00 1.398441124E+02
 3.174424307E+02 4.158603257E+02 5.080982892E+02 5.679260564E+02 5.625061758E+02
 5.243175857E+02 4.707934350E+02 4.167249001E+02 3.623351061E+02 3.038633957E+02
 2.553943973E+02 2.251092489E+02 1.946184651E+02 1.503879919E+02 1.129890670E+02
 1.003790167E+02 9.816076049E+01 7.076370355E+01 2.537471491E+01 -5.991846619E+00
 -3.863695762E+01 -6.850782856E+01 -8.014772620E+01 -8.737660116E+01 -1.014489449E+02
 -1.170004953E+02 -1.306008262E+02 -1.387992629E+02 -1.460750828E+02 -1.557321169E+02
 -1.638700095E+02 -1.743551402E+02 -1.814456063E+02 -1.856284011E+02 -1.904030833E+02
 -1.936502353E+02 -1.969479848E+02 -2.006665227E+02 -2.053030898E+02 -2.115343228E+02
 -2.143743873E+02 -2.173447980E+02 -2.201643541E+02 -2.171623456E+02 -2.136259964E+02
 -2.138973642E+02 -2.155985834E+02 -2.161770909E+02 -2.167355418E+02 -2.156275793E+02
 -2.148254001E+02 -2.125620013E+02 -2.065750455E+02 -2.065681997E+02 -2.043705255E+02
 -2.100318900E+02 -2.138149635E+02 -2.080334213E+02 -1.998120713E+02 -1.945297459E+02
 -1.909844174E+02 -1.875701606E+02 -1.847461531E+02 -1.817295916E+02 -1.792779394E+02
 -1.770362705E+02 -1.730124414E+02 -1.685075114E+02 -1.638976712E+02 -1.627102875E+02
 -1.643894494E+02 -1.614318809E+02 -1.553478024E+02 -1.498651175E+02 -1.455301319E+02
 -1.409587655E+02 -1.357897997E+02 -1.314383391E+02 -1.258379897E+02 -1.176990184E+02
 -1.080675808E+02 -9.945344360E+01 -9.206057998E+01 -8.473687613E+01 -7.745527823E+01
 -7.044850844E+01 -6.310588384E+01 -5.472296139E+01 -4.620418218E+01 -3.827008115E+01
 -3.123273955E+01 -2.394470146E+01 -1.580896453E+01 -7.975255173E+00 -1.379589461E+00
 6.872336892E+00 1.254022708E+01 1.805990813E+01
ZONE T="Slice: Z=0.110645 (region 1)"
 STRANDID=7, SOLUTIONTIME=0
 I=221, J=1, K=1, ZONETYPE=Ordered
 DATAPACKING=BLOCK
 DT=(DOUBLE DOUBLE DOUBLE DOUBLE )
 2.566367336E+00 2.566367350E+00 2.566367350E+00 2.566367350E+00 2.566367350E+00
 2.566367350E+00 2.566367350E+00 2.566367350E+00 2.566367350E+00 2.566367350E+00
 2.566367350E+00 2.566367350E+00 2.566367350E+00 2.566367349E+00 2.566367349E+00
 2.566367349E+00 2.566367349E+00 2.566367349E+00 2.566367349E+00 2.566367349E+00
 2.566367349E+00 2.566367349E+00 2.566367349E+00 2.566367349E+00 2.566367349E+00
 2.566367349E+00 2.566367349E+00 2.566367349E+00 2.566367349E+00 2.566367349E+00
 2.566367349E+00 2.566367336E+00 2.564688336E+00 2.562978589E+00 2.561274182E+00
 2.559567753E+00 2.557862010E+00 2.556155495E+00 2.554449277E+00 2.552743309E+00
 2.551037382E+00 2.549331445E+00 2.547624752E+00 2.545914432E+00 2.544203230E+00
 2.542492363E+00 2.540783007E+00 2.539078129E+00 2.537378437E+00 2.535679168E+00
 2.533977758E+00 2.532273213E+00 2.530566170E+00 2.528859445E+00 2.527152737E+00
 2.525445688E+00 2.523738434E+00 2.522030393E+00 2.520320451E+00 2.518610512E+00
 2.516898366E+00 2.515185669E+00 2.513471621E+00 2.511755849E+00 2.510040075E+00
 2.508324301E+00 2.506608492E+00 2.504890514E+00 2.503171191E+00 2.501451432E+00
 2.499729527E+00 2.498007509E+00 2.496282526E+00 2.494556635E+00 2.492830744E+00
 2.491104847E+00 2.489378836E+00 2.487649485E+00 2.485919795E+00 2.484188892E+00
 2.482456874E+00 2.480724637E+00 2.478990426E+00 2.477256192E+00 2.475520270E+00
 2.473783564E+00 2.472046324E+00 2.470307686E+00 2.468569037E+00 2.466829619E+00
 2.465090081E+00 2.463350227E+00 2.461610193E+00 2.459870159E+00 2.458130876E+00
 2.456391648E+00 2.454653290E+00 2.452916434E+00 2.451181378E+00 2.449450239E+00
 2.447719090E+00 2.445995116E+00 2.444275020E+00 2.442559332E+00 2.440858437E+00
 2.439157806E+00 2.437473755E+00 2.435804177E+00 2.434153880E+00 2.432549704E+00
 2.430970803E+00 2.430285740E+00 2.429600744E+00 2.428925123E+00 2.428276023E+00
 2.427676664E+00 2.427137556E+00 2.426623898E+00 2.426078284E+00 2.425535214E+00
 2.425097460E+00 2.424748681E+00 2.424377379E+00 2.424126609E+00 2.423991711E+00
 2.423840283E+00 2.423785535E+00 2.423894189E+00 2.424120984E+00 2.424415475E+00
 2.424768287E+00 2.425173154E+00 2.425614301E+00 2.426101520E+00 2.426646771E+00
 2.427220966E+00 2.427799131E+00 2.428391498E+00 2.429016842E+00 2.429665905E+00
 2.430320046E+00 2.430970803E+00 2.432526637E+00 2.434126035E+00 2.435726861E+00
 2.437375212E+00 2.439044479E+00 2.440722931E+00 2.442404428E+00 2.444096901E+00
 2.445799427E+00 2.447509911E+00 2.449223687E+00 2.450939459E+00 2.452660103E+00
 2.454380849E+00 2.456107229E+00 2.457834092E+00 2.459563314E+00 2.461293922E+00
 2.463024989E+00 2.464757175E+00 2.466489359E+00 2.468222211E+00 2.469955135E+00
 2.471688333E+00 2.473421423E+00 2.475154133E+00 2.476886704E+00 2.478619456E+00
 2.480351930E+00 2.482084351E+00 2.483816057E+00 2.485546874E+00 2.487277454E+00
 2.489006705E+00 2.490735956E+00 2.492465179E+00 2.494194401E+00 2.495922352E+00
 2.497648691E+00 2.499375028E+00 2.501101323E+00 2.502827618E+00 2.504551784E+00
 2.506275303E+00 2.507998822E+00 2.509722340E+00 2.511445609E+00 2.513166242E+00
 2.514886865E+00 2.516607488E+00 2.518328109E+00 2.520047678E+00 2.521765563E+00
 2.523483449E+00 2.525201334E+00 2.526919225E+00 2.528636116E+00 2.530352581E+00
 2.532069047E+00 2.533785512E+00 2.535502018E+00 2.537218571E+00 2.538935085E+00
 2.540651596E+00 2.542368106E+00 2.544084627E+00 2.545801170E+00 2.547517714E+00
 2.549234264E+00 2.550950819E+00 2.552667375E+00 2.554383976E+00 2.556100555E+00
 2.557817090E+00 2.559533624E+00 2.561250379E+00 2.562963497E+00 2.564685045E+00
 2.566367336E+00
 -1.502240746E+00 -1.502321479E+00 -1.502402211E+00 -1.502482944E+00 -1.502563676E+00
 -1.502644409E+00 -1.502725141E+00 -1.502805874E+00 -1.502886606E+00 -1.502967339E+00
 -1.503048071E+00 -1.503128804E+00 -1.503209536E+00 -1.503290269E+00 -1.503371001E+00
 -1.503451734E+00 -1.503532466E+00 -1.503613198E+00 -1.503693931E+00 -1.503774663E+00
 -1.503855396E+00 -1.503936128E+00 -1.504016861E+00 -1.504097593E+00 -1.504178326E+00
 -1.504259058E+00 -1.504339791E+00 -1.504420523E+00 -1.504501256E+00 -1.504581988E+00
 -1.504662721E+00 -1.504743454E+00 -1.505199044E+00 -1.505524975E+00 -1.505874318E+00
 -1.506214876E+00 -1.506560111E+00 -1.506899739E+00 -1.507240927E+00 -1.507583544E+00
 -1.507926364E+00 -1.508269342E+00 -1.508608652E+00 -1.508928915E+00 -1.509244387E+00
 -1.509561866E+00 -1.509887671E+00 -1.510236760E+00 -1.510608138E+00 -1.510981089E+00
 -1.511346143E+00 -1.511698637E+00 -1.512039381E+00 -1.512378200E+00 -1.512717080E+00
 -1.513052671E+00 -1.513386593E+00 -1.513717071E+00 -1.514038947E+00 -1.514360823E+00
 -1.514671594E+00 -1.514979756E+00 -1.515280110E+00 -1.515570102E+00 -1.515860094E+00
 -1.516150087E+00 -1.516439936E+00 -1.516716123E+00 -1.516983157E+00 -1.517247624E+00
 -1.517499229E+00 -1.517750316E+00 -1.517979186E+00 -1.518200721E+00 -1.518422256E+00
 -1.518643765E+00 -1.518864675E+00 -1.519059643E+00 -1.519251912E+00 -1.519430953E+00
 -1.519596555E+00 -1.519760013E+00 -1.519901021E+00 -1.520041838E+00 -1.520161294E+00
 -1.520269453E+00 -1.520369166E+00 -1.520441781E+00 -1.520514248E+00 -1.520559154E+00
 -1.520597396E+00 -1.520619247E+00 -1.520615064E+00 -1.520610444E+00 -1.520557542E+00
 -1.520502574E+00 -1.520425059E+00 -1.520319511E+00 -1.520188321E+00 -1.520012121E+00
 -1.519835921E+00 -1.519599778E+00 -1.519336941E+00 -1.519046586E+00 -1.518679197E+00
 -1.518310975E+00 -1.517873152E+00 -1.517382852E+00 -1.516831258E+00 -1.516156908E+00
 -1.515425709E+00 -1.515118181E+00 -1.514810396E+00 -1.514482838E+00 -1.514106043E+00
 -1.513653860E+00 -1.513130487E+00 -1.512582781E+00 -1.512066479E+00 -1.511548307E+00
 -1.510937044E+00 -1.510272502E+00 -1.509619774E+00 -1.508911922E+00 -1.508173160E+00
 -1.507437638E+00 -1.506688694E+00 -1.505945631E+00 -1.505229709E+00 -1.504538895E+00
 -1.503875978E+00 -1.503243485E+00 -1.502635771E+00 -1.502064324E+00 -1.501547950E+00
 -1.501063964E+00 -1.500584730E+00 -1.500123167E+00 -1.499707379E+00 -1.499329673E+00
 -1.498960838E+00 -1.498586061E+00 -1.497822199E+00 -1.497154385E+00 -1.496489990E+00
 -1.495954342E+00 -1.495487826E+00 -1.495055588E+00 -1.494635275E+00 -1.494261687E+00
 -1.493936935E+00 -1.493657234E+00 -1.493398185E+00 -1.493152851E+00 -1.492944546E+00
 -1.492736724E+00 -1.492583192E+00 -1.492434564E+00 -1.492316871E+00 -1.492221648E+00
 -1.492134996E+00 -1.492075062E+00 -1.492015102E+00 -1.491979625E+00 -1.491947328E+00
 -1.491938163E+00 -1.491959856E+00 -1.492001888E+00 -1.492049469E+00 -1.492089895E+00
 -1.492140745E+00 -1.492193440E+00 -1.492266040E+00 -1.492357307E+00 -1.492453000E+00
 -1.492570253E+00 -1.492687511E+00 -1.492805219E+00 -1.492922926E+00 -1.493058015E+00
 -1.493212356E+00 -1.493366718E+00 -1.493521518E+00 -1.493676322E+00 -1.493853264E+00
 -1.494036419E+00 -1.494219573E+00 -1.494402728E+00 -1.494588208E+00 -1.494796742E+00
 -1.495005352E+00 -1.495213962E+00 -1.495422580E+00 -1.495639713E+00 -1.495869779E+00
 -1.496099845E+00 -1.496329911E+00 -1.496559942E+00 -1.496797314E+00 -1.497037743E+00
 -1.497278171E+00 -1.497518600E+00 -1.497758776E+00 -1.497998622E+00 -1.498238706E+00
 -1.498478810E+00 -1.498718914E+00 -1.498958942E+00 -1.499198812E+00 -1.499438678E+00
 -1.499678501E+00 -1.499918284E+00 -1.500158066E+00 -1.500397567E+00 -1.500637219E+00
 -1.500877151E+00 -1.501117087E+00 -1.501355493E+00 -1.501603280E+00 -1.501824920E+00
 -1.502240746E+00
 1.106451613E-01 1.106451613E-01 1.106451613E-01 1.106451613E-01 1.106451613E-01
 1.106451613E-01 1.106451613E-01 1.106451613E-01 1.106451613E-01 1.106451613E-01
 1.106451613E-01 1.106451613E-01 1.106451613E-01 1.106451613E-01 1.106451613E-01
 1.106451613E-01 1.106451613E-01 1.106451613E-01 1.106451613E-01 1.106451613E-01
 1.106451613E-01 1.106451613E-01 1.106451613E-01 1.106451613E-01 1.106451613E-01
 1.106451613E-01 1.106451613E-01 1.106451613E-01 1.106451613E-01 1.106451613E-01
 1.106451613E-01 1.106451613E-01 1.106451613E-01 1.106451613E-01 1.106451613E-01
 1.106451613E-01 1.106451613E-01 1.106451613E-01 1.106451613E-01 1.106451613E-01
 1.106451613E-01 1.106451613E-01 1.106451613E-01 1.106451613E-01 1.106451613E-01
 1.106451613E-01 1.106451613E-01 1.106451613E-01 1.106451613E-01 1.106451613E-01
 1.106451613E-01 1.106451613E-01 1.106451613E-01 1.106451613E-01 1.106451613E-01
 1.106451613E-01 1.106451613E-01 1.106451613E-01 1.106451613E-01 1.106451613E-01
 1.106451613E-01 1.106451613E-01 1.106451613E-01 1.106451613E-01 1.106451613E-01
 1.106451613E-01 1.106451613E-01 1.106451613E-01 1.106451613E-01 1.106451613E-01
 1.106451613E-01 1.106451613E-01 1.106451613E-01 1.106451613E-01 1.106451613E-01
 1.106451613E-01 1.106451613E-01 1.106451613E-01 1.106451613E-01 1.106451613E-01
 1.106451613E-01 1.106451613E-01 1.106451613E-01 1.106451613E-01 1.106451613E-01
 1.106451613E-01 1.106451613E-01 1.106451613E-01 1.106451613E-01 1.106451613E-01
 1.106451613E-01 1.106451613E-01 1.106451613E-01 1.106451613E-01 1.106451613E-01
 1.106451613E-01 1.106451613E-01 1.106451613E-01 1.106451613E-01 1.106451613E-01
 1.106451613E-01 1.106451613E-01 1.106451613E-01 1.106451613E-01 1.106451613E-01
 1.106451613E-01 1.106451613E-01 1.106451613E-01 1.106451613E-01 1.106451613E-01
 1.106451613E-01 1.106451613E-01 1.106451613E-01 1.106451613E-01 1.106451613E-01
 1.106451613E-01 1.106451613E-01 1.106451613E-01 1.106451613E-01 1.106451613E-01
 1.106451613E-01 1.106451613E-01 1.106451613E-01 1.106451613E-01 1.106451613E-01
 1.106451613E-01 1.106451613E-01 1.106451613E-01 1.106451613E-01 1.106451613E-01
 1.106451613E-01 1.106451613E-01 1.106451613E-01 1.106451613E-01 1.106451613E-01
 1.106451613E-01 1.106451613E-01 1.106451613E-01 1.106451613E-01 1.106451613E-01
 1.106451613E-01 1.106451613E-01 1.106451613E-01 1.106451613E-01 1.106451613E-01
 1.106451613E-01 1.106451613E-01 1.106451613E-01 1.106451613E-01 1.106451613E-01
 1.106451613E-01 1.106451613E-01 1.106451613E-01 1.106451613E-01 1.106451613E-01
 1.106451613E-01 1.106451613E-01 1.106451613E-01 1.106451613E-01 1.106451613E-01
 1.106451613E-01 1.106451613E-01 1.106451613E-01 1.106451613E-01 1.106451613E-01
 1.106451613E-01 1.106451613E-01 1.106451613E-01 1.106451613E-01 1.106451613E-01
 1.106451613E-01 1.106451613E-01 1.106451613E-01 1.106451613E-01 1.106451613E-01
 1.106451613E-01 1.106451613E-01 1.106451613E-01 1.106451613E-01 1.106451613E-01
 1.106451613E-01 1.106451613E-01 1.106451613E-01 1.106451613E-01 1.106451613E-01
 1.106451613E-01 1.106451613E-01 1.106451613E-01 1.106451613E-01 1.106451613E-01
 1.106451613E-01 1.106451613E-01 1.106451613E-01 1.106451613E-01 1.106451613E-01
 1.106451613E-01 1.106451613E-01 1.106451613E-01 1.106451613E-01 1.106451613E-01
 1.106451613E-01 1.106451613E-01 1.106451613E-01 1.106451613E-01 1.106451613E-01
 1.106451613E-01 1.106451613E-01 1.106451613E-01 1.106451613E-01 1.106451613E-01
 1.106451613E-01 1.106451613E-01 1.106451613E-01 1.106451613E-01 1.106451613E-01
 1.106451613E-01 1.106451613E-01 1.106451613E-01 1.106451613E-01 1.106451613E-01
 1.106451613E-01
 3.042003838E+01 3.865293324E+01 4.042620652E+01 4.096064932E+01 4.160550265E+01
 4.258356038E+01 4.366974229E+01 4.472434006E+01 4.557175897E+01 4.694092260E+01
 4.856743672E+01 4.963179902E+01 5.045911728E+01 5.115912803E+01 5.140925631E+01
 5.120332066E+01 5.081871355E+01 5.016795044E+01 4.949031485E+01 4.869325468E+01
 4.717186415E+01 4.637670355E+01 4.617115421E+01 4.542951436E+01 4.488844899E+01
 4.441207475E+01 4.387891019E+01 4.348505630E+01 4.306375410E+01 4.211093295E+01
 4.024024866E+01 3.775535417E+01 3.652665839E+01 3.375151795E+01 2.931738663E+01
 2.580073680E+01 2.266473402E+01 1.972835366E+01 1.673687096E+01 1.390566786E+01
 1.084365150E+01 8.197198674E+00 7.011162478E+00 6.413377176E+00 5.010267677E+00
 2.256533159E+00 -2.499098270E+00 -8.880740811E+00 -1.584905710E+01 -2.250966157E+01
 -2.808578509E+01 -3.275335209E+01 -3.829455943E+01 -4.538750130E+01 -5.319720952E+01
 -6.082584517E+01 -6.848051174E+01 -7.665700284E+01 -8.544422961E+01 -9.414958765E+01
 -1.023077686E+02 -1.099818039E+02 -1.173431899E+02 -1.253858032E+02 -1.349586864E+02
 -1.453649849E+02 -1.533291431E+02 -1.606775034E+02 -1.693316275E+02 -1.781076940E+02
 -1.874812980E+02 -1.935433892E+02 -1.985885595E+02 -2.056104120E+02 -2.150201935E+02
 -2.252571202E+02 -2.310844841E+02 -2.377996554E+02 -2.448014530E+02 -2.507273023E+02
 -2.587132756E+02 -2.639257438E+02 -2.726683683E+02 -2.816021917E+02 -2.842203217E+02
 -2.909305215E+02 -2.936688874E+02 -2.966987804E+02 -3.018157392E+02 -3.082686567E+02
 -3.169850214E+02 -3.204616894E+02 -3.302235683E+02 -3.341521305E+02 -3.385404716E+02
 -3.493631287E+02 -3.570345249E+02 -3.637637885E+02 -3.622117376E+02 -3.737918090E+02
 -3.824704806E+02 -3.793582369E+02 -3.894606862E+02 -3.853689023E+02 -3.860642926E+02
 -3.950522204E+02 -3.973411012E+02 -4.066507526E+02 -3.744697412E+02 -3.167227316E+02
 -2.966933911E+02 -3.194213121E+02 -3.702404814E+02 -4.100355972E+02 -3.861501585E+02
 -2.662290287E+02 -1.007306344E+02 -1.917977365E+01 -6.232070620E+01 -5.919432925E+01
 8.736132953E+01 1.925744623E+02 2.375445175E+02 3.458395321E+02 4.416672860E+02
 4.893567452E+02 5.277240437E+02 5.418436950E+02 5.273991609E+02 4.960434834E+02
 4.538909437E+02 4.072081016E+02 3.562159458E+02 2.986564003E+02 2.512838485E+02
 2.228143407E+02 1.889656531E+02 1.367915543E+02 9.402793707E+01 8.136909996E+01
 7.837055919E+01 3.970105129E+01 -1.499409372E+01 -4.542305117E+01 -8.947164769E+01
 -1.311366060E+02 -1.386723750E+02 -1.410065752E+02 -1.583578902E+02 -1.814791401E+02
 -1.962813584E+02 -2.008507107E+02 -2.015548175E+02 -2.092599044E+02 -2.166779860E+02
 -2.271694238E+02 -2.351273288E+02 -2.369414617E+02 -2.409404332E+02 -2.411003124E+02
 -2.415874727E+02 -2.411775060E+02 -2.426334365E+02 -2.470505492E+02 -2.493115339E+02
 -2.543529108E+02 -2.565482296E+02 -2.491770092E+02 -2.387411262E+02 -2.347008235E+02
 -2.348590762E+02 -2.362266595E+02 -2.380918289E+02 -2.342026373E+02 -2.301261792E+02
 -2.251848980E+02 -2.178374649E+02 -2.130414375E+02 -2.133401175E+02 -2.151460084E+02
 -2.087780532E+02 -1.997776903E+02 -1.939574672E+02 -1.908430698E+02 -1.864783423E+02
 -1.795258858E+02 -1.734119699E+02 -1.692504594E+02 -1.674850871E+02 -1.623903051E+02
 -1.545325755E+02 -1.484209910E+02 -1.446495035E+02 -1.423344213E+02 -1.365763044E+02
 -1.284296477E+02 -1.212888262E+02 -1.154779990E+02 -1.097526670E+02 -1.025403122E+02