TITLE     = "Fluent Common Fluid Files Data"
VARIABLES = "X"
"Y"
"Z"
"Static Pressure"
DATASETAUXDATA Common.DensityVar="7"
DATASETAUXDATA Common.PressureVar="15"
DATASETAUXDATA Common.TemperatureVar="17"
DATASETAUXDATA Common.TurbulentDynamicViscosityVar="12"
DATASETAUXDATA Common.TurbulentKineticEnergyVar="10"
DATASETAUXDATA Common.UVar="18"
DATASETAUXDATA Common.VectorVarsAreVelocity="True"
DATASETAUXDATA Common.ViscosityVar="11"
DATASETAUXDATA Common.VVar="19"
DATASETAUXDATA Common.WVar="20"
ZONE T="Slice: Z=0.1 (region 1)"
 STRANDID=7, SOLUTIONTIME=0
 I=223, J=1, K=1, ZONETYPE=Ordered
 DATAPACKING=BLOCK
 DT=(DOUBLE DOUBLE DOUBLE DOUBLE )
 2.559303055E+00 2.559315316E+00 2.559326192E+00 2.559337053E+00 2.559347900E+00
 2.559358734E+00 2.559369553E+00 2.559380358E+00 2.559391149E+00 2.559401925E+00
 2.559412686E+00 2.559423434E+00 2.559434168E+00 2.559444888E+00 2.559455594E+00
 2.559466286E+00 2.559476965E+00 2.559487630E+00 2.559496338E+00 2.559504861E+00
 2.559513370E+00 2.559521862E+00 2.559530291E+00 2.559538673E+00 2.559547043E+00
 2.559555401E+00 2.559563747E+00 2.559572082E+00 2.559580404E+00 2.559588715E+00
 2.559597014E+00 2.559605255E+00 2.557810291E+00 2.556033100E+00 2.554250360E+00
 2.552485974E+00 2.550736704E+00 2.548994104E+00 2.547271167E+00 2.545553734E+00
 2.543849255E+00 2.542160644E+00 2.540487035E+00 2.538826372E+00 2.537174411E+00
 2.535532877E+00 2.533903265E+00 2.532272273E+00 2.530663465E+00 2.529198527E+00
 2.529059201E+00 2.527452570E+00 2.525844544E+00 2.524234676E+00 2.522623902E+00
 2.521011028E+00 2.519396064E+00 2.517772845E+00 2.516148882E+00 2.514523094E+00
 2.512889677E+00 2.511251273E+00 2.509609974E+00 2.507961070E+00 2.506308957E+00
 2.504650094E+00 2.502985468E+00 2.501313137E+00 2.499635407E+00 2.497956658E+00
 2.496267478E+00 2.494577079E+00 2.492881001E+00 2.491179488E+00 2.489478233E+00
 2.487767527E+00 2.486057496E+00 2.484337353E+00 2.482616845E+00 2.480897378E+00
 2.479171110E+00 2.477447528E+00 2.475718253E+00 2.473987046E+00 2.472258226E+00
 2.470524667E+00 2.468785515E+00 2.467050986E+00 2.465312926E+00 2.463576557E+00
 2.461841900E+00 2.460108835E+00 2.458373924E+00 2.456641804E+00 2.454909454E+00
 2.453182762E+00 2.451453076E+00 2.449726927E+00 2.448005462E+00 2.446287654E+00
 2.444573363E+00 2.442859854E+00 2.441157014E+00 2.439453335E+00 2.437758781E+00
 2.436073579E+00 2.434386314E+00 2.432715676E+00 2.431053025E+00 2.429404889E+00
 2.427786633E+00 2.426169539E+00 2.425460998E+00 2.424752804E+00 2.424053191E+00
 2.423375524E+00 2.422733711E+00 2.422132616E+00 2.421553622E+00 2.420951202E+00
 2.420319169E+00 2.419730892E+00 2.419250175E+00 2.418740953E+00 2.418244913E+00
 2.417955250E+00 2.417695354E+00 2.417448011E+00 2.417516751E+00 2.417744834E+00
 2.418023156E+00 2.418384430E+00 2.418814029E+00 2.419281504E+00 2.419792536E+00
 2.420348749E+00 2.420919435E+00 2.421495754E+00 2.422087567E+00 2.422705080E+00
 2.423332097E+00 2.423960659E+00 2.424584659E+00 2.426203699E+00 2.427839686E+00
 2.429493608E+00 2.431142629E+00 2.432811409E+00 2.434494005E+00 2.436177578E+00
 2.437852319E+00 2.439520423E+00 2.441199906E+00 2.442887716E+00 2.444574914E+00
 2.446263181E+00 2.447948503E+00 2.449628853E+00 2.451321606E+00 2.453005516E+00
 2.454699843E+00 2.456393033E+00 2.458089653E+00 2.459788807E+00 2.461486994E+00
 2.463189110E+00 2.464878384E+00 2.466570051E+00 2.468272207E+00 2.469986543E+00
 2.471699213E+00 2.473411001E+00 2.475121183E+00 2.476823133E+00 2.478530502E+00
 2.480237352E+00 2.481947734E+00 2.483666188E+00 2.483671517E+00 2.485381372E+00
 2.487090178E+00 2.488794671E+00 2.490504985E+00 2.492221007E+00 2.493937192E+00
 2.495648669E+00 2.497357425E+00 2.499070408E+00 2.500784526E+00 2.502497853E+00
 2.504208663E+00 2.505917953E+00 2.507629510E+00 2.509341298E+00 2.511051564E+00
 2.512760798E+00 2.514469816E+00 2.516179089E+00 2.517888813E+00 2.519598705E+00
 2.521308524E+00 2.523017035E+00 2.524725806E+00 2.526436767E+00 2.528148800E+00
 2.529863294E+00 2.531577402E+00 2.533294404E+00 2.535014303E+00 2.536736683E+00
 2.538460589E+00 2.540186108E+00 2.541916399E+00 2.543647168E+00 2.545380748E+00
 2.547115790E+00 2.548853066E+00 2.550593446E+00 2.552335100E+00 2.554079477E+00
 2.555821620E+00 2.557579427E+00 2.559303055E+00
 -1.499229547E+00 -1.499295655E+00 -1.499361627E+00 -1.499427626E+00 -1.499493650E+00
 -1.499559700E+00 -1.499625777E+00 -1.499691879E+00 -1.499758007E+00 -1.499824161E+00
 -1.499890341E+00 -1.499956547E+00 -1.500022778E+00 -1.500089035E+00 -1.500155318E+00
 -1.500221626E+00 -1.500287960E+00 -1.500354319E+00 -1.500420438E+00 -1.500486556E+00
 -1.500552698E+00 -1.500618862E+00 -1.500685050E+00 -1.500751260E+00 -1.500817492E+00
 -1.500883748E+00 -1.500950025E+00 -1.501016326E+00 -1.501082649E+00 -1.501148994E+00
 -1.501215362E+00 -1.501281756E+00 -1.501423597E+00 -1.501527665E+00 -1.501646372E+00
 -1.501796112E+00 -1.501973554E+00 -1.502161980E+00 -1.502390138E+00 -1.502622225E+00
 -1.502880159E+00 -1.503163968E+00 -1.503458699E+00 -1.503761581E+00 -1.504087170E+00
 -1.504435827E+00 -1.504817408E+00 -1.505216764E+00 -1.505646926E+00 -1.506036065E+00
 -1.506071219E+00 -1.506485007E+00 -1.506890984E+00 -1.507296400E+00 -1.507703128E+00
 -1.508108119E+00 -1.508509104E+00 -1.508893478E+00 -1.509278442E+00 -1.509661711E+00
 -1.510030432E+00 -1.510390456E+00 -1.510746546E+00 -1.511087389E+00 -1.511421065E+00
 -1.511739719E+00 -1.512052371E+00 -1.512348382E+00 -1.512632801E+00 -1.512912121E+00
 -1.513165987E+00 -1.513417668E+00 -1.513655635E+00 -1.513875008E+00 -1.514090518E+00
 -1.514278762E+00 -1.514472134E+00 -1.514639170E+00 -1.514797347E+00 -1.514954853E+00
 -1.515088493E+00 -1.515225629E+00 -1.515342383E+00 -1.515442888E+00 -1.515550966E+00
 -1.515624139E+00 -1.515663970E+00 -1.515713296E+00 -1.515723427E+00 -1.515736629E+00
 -1.515740265E+00 -1.515749222E+00 -1.515727987E+00 -1.515700219E+00 -1.515659011E+00
 -1.515596276E+00 -1.515525226E+00 -1.515432234E+00 -1.515329589E+00 -1.515202344E+00
 -1.515055029E+00 -1.514898887E+00 -1.514708833E+00 -1.514489489E+00 -1.514244365E+00
 -1.513964513E+00 -1.513658244E+00 -1.513312065E+00 -1.512928705E+00 -1.512501691E+00
 -1.511971657E+00 -1.511425482E+00 -1.511156951E+00 -1.510888235E+00 -1.510611254E+00
 -1.510306087E+00 -1.509949351E+00 -1.509536107E+00 -1.509096807E+00 -1.508679812E+00
 -1.508279031E+00 -1.507798510E+00 -1.507254822E+00 -1.506706584E+00 -1.506078663E+00
 -1.505402713E+00 -1.504714622E+00 -1.503937742E+00 -1.503162004E+00 -1.502476070E+00
 -1.501839246E+00 -1.501251986E+00 -1.500719248E+00 -1.500220373E+00 -1.499751535E+00
 -1.499340435E+00 -1.498978110E+00 -1.498631994E+00 -1.498297427E+00 -1.498004483E+00
 -1.497747990E+00 -1.497505294E+00 -1.497255268E+00 -1.496697682E+00 -1.496203559E+00
 -1.495761691E+00 -1.495392952E+00 -1.495072066E+00 -1.494774417E+00 -1.494501175E+00
 -1.494259767E+00 -1.494032110E+00 -1.493835354E+00 -1.493640294E+00 -1.493476109E+00
 -1.493315283E+00 -1.493177583E+00 -1.493054099E+00 -1.492944848E+00 -1.492847881E+00
 -1.492759810E+00 -1.492679972E+00 -1.492606829E+00 -1.492543338E+00 -1.492485933E+00
 -1.492451805E+00 -1.492420317E+00 -1.492406584E+00 -1.492396322E+00 -1.492391358E+00
 -1.492389818E+00 -1.492394340E+00 -1.492413140E+00 -1.492432225E+00 -1.492461203E+00
 -1.492489776E+00 -1.492532984E+00 -1.492579223E+00 -1.492579345E+00 -1.492610256E+00
 -1.492627418E+00 -1.492671405E+00 -1.492737337E+00 -1.492812355E+00 -1.492885097E+00
 -1.492964149E+00 -1.493039832E+00 -1.493112934E+00 -1.493196727E+00 -1.493277578E+00
 -1.493371316E+00 -1.493467279E+00 -1.493568774E+00 -1.493678989E+00 -1.493769760E+00
 -1.493862627E+00 -1.493977796E+00 -1.494101364E+00 -1.494229262E+00 -1.494358131E+00
 -1.494491645E+00 -1.494629201E+00 -1.494763363E+00 -1.494917464E+00 -1.495085731E+00
 -1.495266770E+00 -1.495440630E+00 -1.495619629E+00 -1.495802538E+00 -1.495990150E+00
 -1.496184383E+00 -1.496390044E+00 -1.496609928E+00 -1.496831299E+00 -1.497055694E+00
 -1.497280923E+00 -1.497519814E+00 -1.497767185E+00 -1.498017608E+00 -1.498273075E+00
 -1.498547142E+00 -1.498814974E+00 -1.499229547E+00
 1.000000000E-01 1.000000000E-01 1.000000000E-01 1.000000000E-01 1.000000000E-01
 1.000000000E-01 1.000000000E-01 1.000000000E-01 1.000000000E-01 1.000000000E-01
 1.000000000E-01 1.000000000E-01 1.000000000E-01 1.000000000E-01 1.000000000E-01
 1.000000000E-01 1.000000000E-01 1.000000000E-01 1.000000000E-01 1.000000000E-01
 1.000000000E-01 1.000000000E-01 1.000000000E-01 1.000000000E-01 1.000000000E-01
 1.000000000E-01 1.000000000E-01 1.000000000E-01 1.000000000E-01 1.000000000E-01
 1.000000000E-01 1.000000000E-01 1.000000000E-01 1.000000000E-01 1.000000000E-01
 1.000000000E-01 1.000000000E-01 1.000000000E-01 1.000000000E-01 1.000000000E-01
 1.000000000E-01 1.000000000E-01 1.000000000E-01 1.000000000E-01 1.000000000E-01
 1.000000000E-01 1.000000000E-01 1.000000000E-01 1.000000000E-01 1.000000000E-01
 1.000000000E-01 1.000000000E-01 1.000000000E-01 1.000000000E-01 1.000000000E-01
 1.000000000E-01 1.000000000E-01 1.000000000E-01 1.000000000E-01 1.000000000E-01
 1.000000000E-01 1.000000000E-01 1.000000000E-01 1.000000000E-01 1.000000000E-01
 1.000000000E-01 1.000000000E-01 1.000000000E-01 1.000000000E-01 1.000000000E-01
 1.000000000E-01 1.000000000E-01 1.000000000E-01 1.000000000E-01 1.000000000E-01
 1.000000000E-01 1.000000000E-01 1.000000000E-01 1.000000000E-01 1.000000000E-01
 1.000000000E-01 1.000000000E-01 1.000000000E-01 1.000000000E-01 1.000000000E-01
 1.000000000E-01 1.000000000E-01 1.000000000E-01 1.000000000E-01 1.000000000E-01
 1.000000000E-01 1.000000000E-01 1.000000000E-01 1.000000000E-01 1.000000000E-01
 1.000000000E-01 1.000000000E-01 1.000000000E-01 1.000000000E-01 1.000000000E-01
 1.000000000E-01 1.000000000E-01 1.000000000E-01 1.000000000E-01 1.000000000E-01
 1.000000000E-01 1.000000000E-01 1.000000000E-01 1.000000000E-01 1.000000000E-01
 1.000000000E-01 1.000000000E-01 1.000000000E-01 1.000000000E-01 1.000000000E-01
 1.000000000E-01 1.000000000E-01 1.000000000E-01 1.000000000E-01 1.000000000E-01
 1.000000000E-01 1.000000000E-01 1.000000000E-01 1.000000000E-01 1.000000000E-01
 1.000000000E-01 1.000000000E-01 1.000000000E-01 1.000000000E-01 1.000000000E-01
 1.000000000E-01 1.000000000E-01 1.000000000E-01 1.000000000E-01 1.000000000E-01
 1.000000000E-01 1.000000000E-01 1.000000000E-01 1.000000000E-01 1.000000000E-01
 1.000000000E-01 1.000000000E-01 1.000000000E-01 1.000000000E-01 1.000000000E-01
 1.000000000E-01 1.000000000E-01 1.000000000E-01 1.000000000E-01 1.000000000E-01
 1.000000000E-01 1.000000000E-01 1.000000000E-01 1.000000000E-01 1.000000000E-01
 1.000000000E-01 1.000000000E-01 1.000000000E-01 1.000000000E-01 1.000000000E-01
 1.000000000E-01 1.000000000E-01 1.000000000E-01 1.000000000E-01 1.000000000E-01
 1.000000000E-01 1.000000000E-01 1.000000000E-01 1.000000000E-01 1.000000000E-01
 1.000000000E-01 1.000000000E-01 1.000000000E-01 1.000000000E-01 1.000000000E-01
 1.000000000E-01 1.000000000E-01 1.000000000E-01 1.000000000E-01 1.000000000E-01
 1.000000000E-01 1.000000000E-01 1.000000000E-01 1.000000000E-01 1.000000000E-01
 1.000000000E-01 1.000000000E-01 1.000000000E-01 1.000000000E-01 1.000000000E-01
 1.000000000E-01 1.000000000E-01 1.000000000E-01 1.000000000E-01 1.000000000E-01
 1.000000000E-01 1.000000000E-01 1.000000000E-01 1.000000000E-01 1.000000000E-01
 1.000000000E-01 1.000000000E-01 1.000000000E-01 1.000000000E-01 1.000000000E-01
 1.000000000E-01 1.000000000E-01 1.000000000E-01 1.000000000E-01 1.000000000E-01
 1.000000000E-01 1.000000000E-01 1.000000000E-01 1.000000000E-01 1.000000000E-01
 1.000000000E-01 1.000000000E-01 1.000000000E-01 1.000000000E-01 1.000000000E-01
 1.000000000E-01 1.000000000E-01 1.000000000E-01
 -5.770165086E+01 -5.524058105E+01 -5.438726638E+01 -5.421202661E+01 -5.413900545E+01
 -5.404561887E+01 -5.386655093E+01 -5.397265220E+01 -5.369999941E+01 -5.328850797E+01
 -5.319347537E+01 -5.290672277E+01 -5.250189646E+01 -5.196821977E+01 -5.148884052E+01
 -5.114706930E+01 -5.127791256E+01 -5.079822582E+01 -4.970507004E+01 -4.913719011E+01
 -4.903682974E+01 -4.928864767E+01 -4.967307499E+01 -5.009356431E+01 -5.052943573E+01
 -5.096506924E+01 -5.140055881E+01 -5.191453513E+01 -5.266681746E+01 -5.420764904E+01
 -5.918687307E+01 -5.726366974E+01 -4.949882231E+01 -4.697142223E+01 -4.522128207E+01
 -4.328465953E+01 -4.045063547E+01 -3.742674567E+01 -3.371911008E+01 -2.862190320E+01
 -2.389361447E+01 -1.901808247E+01 -1.342572777E+01 -8.529275680E+00 -5.794695600E+00
 -5.100162443E+00 -6.362792533E+00 -9.221521237E+00 -1.226273891E+01 -1.462562104E+01
 -1.487481658E+01 -1.714098972E+01 -1.849061044E+01 -2.093746747E+01 -2.504853288E+01
 -2.960373981E+01 -3.414293846E+01 -3.929967090E+01 -4.535503197E+01 -5.142714452E+01
 -5.703035383E+01 -6.344996959E+01 -6.985125480E+01 -7.579448960E+01 -8.180251697E+01
 -8.848073232E+01 -9.508799952E+01 -1.002002891E+02 -1.061534587E+02 -1.109701827E+02
 -1.154283218E+02 -1.208345540E+02 -1.240211269E+02 -1.271773880E+02 -1.291552742E+02
 -1.317722545E+02 -1.339933199E+02 -1.327279048E+02 -1.334457086E+02 -1.331375736E+02
 -1.331212763E+02 -1.343129134E+02 -1.322357897E+02 -1.351013054E+02 -1.373954410E+02
 -1.308253815E+02 -1.262208864E+02 -1.197872614E+02 -1.116675755E+02 -1.062412599E+02
 -1.031091141E+02 -1.006102327E+02 -9.478018214E+01 -9.105004541E+01 -8.552446261E+01
 -7.961503337E+01 -7.497386113E+01 -6.883347377E+01 -6.202825550E+01 -5.237880881E+01
 -4.694253822E+01 -4.107920753E+01 -3.056010598E+01 -2.215072422E+01 -8.859633603E+00
 4.248191505E+00 1.691085761E+01 3.260878031E+01 4.691450901E+01 7.836591303E+01
 1.162576951E+02 1.435172535E+02 1.608171194E+02 1.668567613E+02 1.759413539E+02
 2.011278869E+02 2.457016797E+02 2.954124076E+02 3.282625116E+02 3.417197757E+02
 3.609395477E+02 3.876166945E+02 4.007007453E+02 3.977593634E+02 3.682728247E+02
 3.143222201E+02 2.221002594E+02 -7.299975490E-01 -2.200072776E+02 -2.986467760E+02
 -3.856729720E+02 -4.950593156E+02 -5.477170235E+02 -5.860961501E+02 -6.452782903E+02
 -6.731839791E+02 -6.534880847E+02 -6.430574908E+02 -6.733954884E+02 -6.971583818E+02
 -6.753259046E+02 -6.351426954E+02 -6.322935285E+02 -6.382392905E+02 -6.136352453E+02
 -6.044832103E+02 -6.036793865E+02 -5.825563000E+02 -5.569115782E+02 -5.441368418E+02
 -5.380712784E+02 -5.325485017E+02 -5.221741048E+02 -5.113730066E+02 -5.038351281E+02
 -4.955938422E+02 -4.906840985E+02 -4.829189284E+02 -4.730766809E+02 -4.642647331E+02
 -4.543251208E+02 -4.457938815E+02 -4.380602558E+02 -4.314189843E+02 -4.264786810E+02
 -4.195458727E+02 -4.133497610E+02 -4.059686458E+02 -3.952479456E+02 -3.846416457E+02
 -3.765436638E+02 -3.702627981E+02 -3.637945956E+02 -3.578983626E+02 -3.509314992E+02
 -3.447112204E+02 -3.379209331E+02 -3.287724154E+02 -3.287498828E+02 -3.215113060E+02
 -3.194504880E+02 -3.171961518E+02 -3.090238929E+02 -2.996445190E+02 -2.920327912E+02
 -2.853165228E+02 -2.786461497E+02 -2.721708754E+02 -2.654769266E+02 -2.589400452E+02
 -2.528447027E+02 -2.460386070E+02 -2.390263542E+02 -2.317770412E+02 -2.255756824E+02
 -2.211550673E+02 -2.151046498E+02 -2.073749609E+02 -1.999043056E+02 -1.930375257E+02
 -1.860766191E+02 -1.783525000E+02 -1.706547030E+02 -1.626525134E+02 -1.540431961E+02
 -1.457795733E+02 -1.387739105E+02 -1.328420319E+02 -1.272212330E+02 -1.215227513E+02
 -1.155073232E+02 -1.089218021E+02 -1.017150083E+02 -9.446022629E+01 -8.770347116E+01
 -8.182928420E+01 -7.687912006E+01 -7.277950897E+01 -6.964502737E+01 -6.728273970E+01
 -6.440388833E+01 -6.101219427E+01 -5.770165086E+01
ZONE T="Slice: Z=0.110645 (region 1)"
 STRANDID=7, SOLUTIONTIME=0
 I=221, J=1, K=1, ZONETYPE=Ordered
 DATAPACKING=BLOCK
 DT=(DOUBLE DOUBLE DOUBLE DOUBLE )
 2.566367336E+00 2.566367350E+00 2.566367350E+00 2.566367350E+00 2.566367350E+00
 2.566367350E+00 2.566367350E+00 2.566367350E+00 2.566367350E+00 2.566367350E+00
 2.566367350E+00 2.566367350E+00 2.566367350E+00 2.566367349E+00 2.566367349E+00
 2.566367349E+00 2.566367349E+00 2.566367349E+00 2.566367349E+00 2.566367349E+00
 2.566367349E+00 2.566367349E+00 2.566367349E+00 2.566367349E+00 2.566367349E+00
 2.566367349E+00 2.566367349E+00 2.566367349E+00 2.566367349E+00 2.566367349E+00
 2.566367349E+00 2.566367336E+00 2.564688336E+00 2.562978589E+00 2.561274182E+00
 2.559567753E+00 2.557862010E+00 2.556155495E+00 2.554449277E+00 2.552743309E+00
 2.551037382E+00 2.549331445E+00 2.547624752E+00 2.545914432E+00 2.544203230E+00
 2.542492363E+00 2.540783007E+00 2.539078129E+00 2.537378437E+00 2.535679168E+00
 2.533977758E+00 2.532273213E+00 2.530566170E+00 2.528859445E+00 2.527152737E+00
 2.525445688E+00 2.523738434E+00 2.522030393E+00 2.520320451E+00 2.518610512E+00
 2.516898366E+00 2.515185669E+00 2.513471621E+00 2.511755849E+00 2.510040075E+00
 2.508324301E+00 2.506608492E+00 2.504890514E+00 2.503171191E+00 2.501451432E+00
 2.499729527E+00 2.498007509E+00 2.496282526E+00 2.494556635E+00 2.492830744E+00
 2.491104847E+00 2.489378836E+00 2.487649485E+00 2.485919795E+00 2.484188892E+00
 2.482456874E+00 2.480724637E+00 2.478990426E+00 2.477256192E+00 2.475520270E+00
 2.473783564E+00 2.472046324E+00 2.470307686E+00 2.468569037E+00 2.466829619E+00
 2.465090081E+00 2.463350227E+00 2.461610193E+00 2.459870159E+00 2.458130876E+00
 2.456391648E+00 2.454653290E+00 2.452916434E+00 2.451181378E+00 2.449450239E+00
 2.447719090E+00 2.445995116E+00 2.444275020E+00 2.442559332E+00 2.440858437E+00
 2.439157806E+00 2.437473755E+00 2.435804177E+00 2.434153880E+00 2.432549704E+00
 2.430970803E+00 2.430285740E+00 2.429600744E+00 2.428925123E+00 2.428276023E+00
 2.427676664E+00 2.427137556E+00 2.426623898E+00 2.426078284E+00 2.425535214E+00
 2.425097460E+00 2.424748681E+00 2.424377379E+00 2.424126609E+00 2.423991711E+00
 2.423840283E+00 2.423785535E+00 2.423894189E+00 2.424120984E+00 2.424415475E+00
 2.424768287E+00 2.425173154E+00 2.425614301E+00 2.426101520E+00 2.426646771E+00
 2.427220966E+00 2.427799131E+00 2.428391498E+00 2.429016842E+00 2.429665905E+00
 2.430320046E+00 2.430970803E+00 2.432526637E+00 2.434126035E+00 2.435726861E+00
 2.437375212E+00 2.439044479E+00 2.440722931E+00 2.442404428E+00 2.444096901E+00
 2.445799427E+00 2.447509911E+00 2.449223687E+00 2.450939459E+00 2.452660103E+00
 2.454380849E+00 2.456107229E+00 2.457834092E+00 2.459563314E+00 2.461293922E+00
 2.463024989E+00 2.464757175E+00 2.466489359E+00 2.468222211E+00 2.469955135E+00
 2.471688333E+00 2.473421423E+00 2.475154133E+00 2.476886704E+00 2.478619456E+00
 2.480351930E+00 2.482084351E+00 2.483816057E+00 2.485546874E+00 2.487277454E+00
 2.489006705E+00 2.490735956E+00 2.492465179E+00 2.494194401E+00 2.495922352E+00
 2.497648691E+00 2.499375028E+00 2.501101323E+00 2.502827618E+00 2.504551784E+00
 2.506275303E+00 2.507998822E+00 2.509722340E+00 2.511445609E+00 2.513166242E+00
 2.514886865E+00 2.516607488E+00 2.518328109E+00 2.520047678E+00 2.521765563E+00
 2.523483449E+00 2.525201334E+00 2.526919225E+00 2.528636116E+00 2.530352581E+00
 2.532069047E+00 2.533785512E+00 2.535502018E+00 2.537218571E+00 2.538935085E+00
 2.540651596E+00 2.542368106E+00 2.544084627E+00 2.545801170E+00 2.547517714E+00
 2.549234264E+00 2.550950819E+00 2.552667375E+00 2.554383976E+00 2.556100555E+00
 2.557817090E+00 2.559533624E+00 2.561250379E+00 2.562963497E+00 2.564685045E+00
 2.566367336E+00
 -1.502240746E+00 -1.502321479E+00 -1.502402211E+00 -1.502482944E+00 -1.502563676E+00
 -1.502644409E+00 -1.502725141E+00 -1.502805874E+00 -1.502886606E+00 -1.502967339E+00
 -1.503048071E+00 -1.503128804E+00 -1.503209536E+00 -1.503290269E+00 -1.503371001E+00
 -1.503451734E+00 -1.503532466E+00 -1.503613198E+00 -1.503693931E+00 -1.503774663E+00
 -1.503855396E+00 -1.503936128E+00 -1.504016861E+00 -1.504097593E+00 -1.504178326E+00
 -1.504259058E+00 -1.504339791E+00 -1.504420523E+00 -1.504501256E+00 -1.504581988E+00
 -1.504662721E+00 -1.504743454E+00 -1.505199044E+00 -1.505524975E+00 -1.505874318E+00
 -1.506214876E+00 -1.506560111E+00 -1.506899739E+00 -1.507240927E+00 -1.507583544E+00
 -1.507926364E+00 -1.508269342E+00 -1.508608652E+00 -1.508928915E+00 -1.509244387E+00
 -1.509561866E+00 -1.509887671E+00 -1.510236760E+00 -1.510608138E+00 -1.510981089E+00
 -1.511346143E+00 -1.511698637E+00 -1.512039381E+00 -1.512378200E+00 -1.512717080E+00
 -1.513052671E+00 -1.513386593E+00 -1.513717071E+00 -1.514038947E+00 -1.514360823E+00
 -1.514671594E+00 -1.514979756E+00 -1.515280110E+00 -1.515570102E+00 -1.515860094E+00
 -1.516150087E+00 -1.516439936E+00 -1.516716123E+00 -1.516983157E+00 -1.517247624E+00
 -1.517499229E+00 -1.517750316E+00 -1.517979186E+00 -1.518200721E+00 -1.518422256E+00
 -1.518643765E+00 -1.518864675E+00 -1.519059643E+00 -1.519251912E+00 -1.519430953E+00
 -1.519596555E+00 -1.519760013E+00 -1.519901021E+00 -1.520041838E+00 -1.520161294E+00
 -1.520269453E+00 -1.520369166E+00 -1.520441781E+00 -1.520514248E+00 -1.520559154E+00
 -1.520597396E+00 -1.520619247E+00 -1.520615064E+00 -1.520610444E+00 -1.520557542E+00
 -1.520502574E+00 -1.520425059E+00 -1.520319511E+00 -1.520188321E+00 -1.520012121E+00
 -1.519835921E+00 -1.519599778E+00 -1.519336941E+00 -1.519046586E+00 -1.518679197E+00
 -1.518310975E+00 -1.517873152E+00 -1.517382852E+00 -1.516831258E+00 -1.516156908E+00
 -1.515425709E+00 -1.515118181E+00 -1.514810396E+00 -1.514482838E+00 -1.514106043E+00
 -1.513653860E+00 -1.513130487E+00 -1.512582781E+00 -1.512066479E+00 -1.511548307E+00
 -1.510937044E+00 -1.510272502E+00 -1.509619774E+00 -1.508911922E+00 -1.508173160E+00
 -1.507437638E+00 -1.506688694E+00 -1.505945631E+00 -1.505229709E+00 -1.504538895E+00
 -1.503875978E+00 -1.503243485E+00 -1.502635771E+00 -1.502064324E+00 -1.501547950E+00
 -1.501063964E+00 -1.500584730E+00 -1.500123167E+00 -1.499707379E+00 -1.499329673E+00
 -1.498960838E+00 -1.498586061E+00 -1.497822199E+00 -1.497154385E+00 -1.496489990E+00
 -1.495954342E+00 -1.495487826E+00 -1.495055588E+00 -1.494635275E+00 -1.494261687E+00
 -1.493936935E+00 -1.493657234E+00 -1.493398185E+00 -1.493152851E+00 -1.492944546E+00
 -1.492736724E+00 -1.492583192E+00 -1.492434564E+00 -1.492316871E+00 -1.492221648E+00
 -1.492134996E+00 -1.492075062E+00 -1.492015102E+00 -1.491979625E+00 -1.491947328E+00
 -1.491938163E+00 -1.491959856E+00 -1.492001888E+00 -1.492049469E+00 -1.492089895E+00
 -1.492140745E+00 -1.492193440E+00 -1.492266040E+00 -1.492357307E+00 -1.492453000E+00
 -1.492570253E+00 -1.492687511E+00 -1.492805219E+00 -1.492922926E+00 -1.493058015E+00
 -1.493212356E+00 -1.493366718E+00 -1.493521518E+00 -1.493676322E+00 -1.493853264E+00
 -1.494036419E+00 -1.494219573E+00 -1.494402728E+00 -1.494588208E+00 -1.494796742E+00
 -1.495005352E+00 -1.495213962E+00 -1.495422580E+00 -1.495639713E+00 -1.495869779E+00
 -1.496099845E+00 -1.496329911E+00 -1.496559942E+00 -1.496797314E+00 -1.497037743E+00
 -1.497278171E+00 -1.497518600E+00 -1.497758776E+00 -1.497998622E+00 -1.498238706E+00
 -1.498478810E+00 -1.498718914E+00 -1.498958942E+00 -1.499198812E+00 -1.499438678E+00
 -1.499678501E+00 -1.499918284E+00 -1.500158066E+00 -1.500397567E+00 -1.500637219E+00
 -1.500877151E+00 -1.501117087E+00 -1.501355493E+00 -1.501603280E+00 -1.501824920E+00
 -1.502240746E+00
 1.106451613E-01 1.106451613E-01 1.106451613E-01 1.106451613E-01 1.106451613E-01
 1.106451613E-01 1.106451613E-01 1.106451613E-01 1.106451613E-01 1.106451613E-01
 1.106451613E-01 1.106451613E-01 1.106451613E-01 1.106451613E-01 1.106451613E-01
 1.106451613E-01 1.106451613E-01 1.106451613E-01 1.106451613E-01 1.106451613E-01
 1.106451613E-01 1.106451613E-01 1.106451613E-01 1.106451613E-01 1.106451613E-01
 1.106451613E-01 1.106451613E-01 1.106451613E-01 1.106451613E-01 1.106451613E-01
 1.106451613E-01 1.106451613E-01 1.106451613E-01 1.106451613E-01 1.106451613E-01
 1.106451613E-01 1.106451613E-01 1.106451613E-01 1.106451613E-01 1.106451613E-01
 1.106451613E-01 1.106451613E-01 1.106451613E-01 1.106451613E-01 1.106451613E-01
 1.106451613E-01 1.106451613E-01 1.106451613E-01 1.106451613E-01 1.106451613E-01
 1.106451613E-01 1.106451613E-01 1.106451613E-01 1.106451613E-01 1.106451613E-01
 1.106451613E-01 1.106451613E-01 1.106451613E-01 1.106451613E-01 1.106451613E-01
 1.106451613E-01 1.106451613E-01 1.106451613E-01 1.106451613E-01 1.106451613E-01
 1.106451613E-01 1.106451613E-01 1.106451613E-01 1.106451613E-01 1.106451613E-01
 1.106451613E-01 1.106451613E-01 1.106451613E-01 1.106451613E-01 1.106451613E-01
 1.106451613E-01 1.106451613E-01 1.106451613E-01 1.106451613E-01 1.106451613E-01
 1.106451613E-01 1.106451613E-01 1.106451613E-01 1.106451613E-01 1.106451613E-01
 1.106451613E-01 1.106451613E-01 1.106451613E-01 1.106451613E-01 1.106451613E-01
 1.106451613E-01 1.106451613E-01 1.106451613E-01 1.106451613E-01 1.106451613E-01
 1.106451613E-01 1.106451613E-01 1.106451613E-01 1.106451613E-01 1.106451613E-01
 1.106451613E-01 1.106451613E-01 1.106451613E-01 1.106451613E-01 1.106451613E-01
 1.106451613E-01 1.106451613E-01 1.106451613E-01 1.106451613E-01 1.106451613E-01
 1.106451613E-01 1.106451613E-01 1.106451613E-01 1.106451613E-01 1.106451613E-01
 1.106451613E-01 1.106451613E-01 1.106451613E-01 1.106451613E-01 1.106451613E-01
 1.106451613E-01 1.106451613E-01 1.106451613E-01 1.106451613E-01 1.106451613E-01
 1.106451613E-01 1.106451613E-01 1.106451613E-01 1.106451613E-01 1.106451613E-01
 1.106451613E-01 1.106451613E-01 1.106451613E-01 1.106451613E-01 1.106451613E-01
 1.106451613E-01 1.106451613E-01 1.106451613E-01 1.106451613E-01 1.106451613E-01
 1.106451613E-01 1.106451613E-01 1.106451613E-01 1.106451613E-01 1.106451613E-01
 1.106451613E-01 1.106451613E-01 1.106451613E-01 1.106451613E-01 1.106451613E-01
 1.106451613E-01 1.106451613E-01 1.106451613E-01 1.106451613E-01 1.106451613E-01
 1.106451613E-01 1.106451613E-01 1.106451613E-01 1.106451613E-01 1.106451613E-01
 1.106451613E-01 1.106451613E-01 1.106451613E-01 1.106451613E-01 1.106451613E-01
 1.106451613E-01 1.106451613E-01 1.106451613E-01 1.106451613E-01 1.106451613E-01
 1.106451613E-01 1.106451613E-01 1.106451613E-01 1.106451613E-01 1.106451613E-01
 1.106451613E-01 1.106451613E-01 1.106451613E-01 1.106451613E-01 1.106451613E-01
 1.106451613E-01 1.106451613E-01 1.106451613E-01 1.106451613E-01 1.106451613E-01
 1.106451613E-01 1.106451613E-01 1.106451613E-01 1.106451613E-01 1.106451613E-01
 1.106451613E-01 1.106451613E-01 1.106451613E-01 1.106451613E-01 1.106451613E-01
 1.106451613E-01 1.106451613E-01 1.106451613E-01 1.106451613E-01 1.106451613E-01
 1.106451613E-01 1.106451613E-01 1.106451613E-01 1.106451613E-01 1.106451613E-01
 1.106451613E-01 1.106451613E-01 1.106451613E-01 1.106451613E-01 1.106451613E-01
 1.106451613E-01 1.106451613E-01 1.106451613E-01 1.106451613E-01 1.106451613E-01
 1.106451613E-01 1.106451613E-01 1.106451613E-01 1.106451613E-01 1.106451613E-01
 1.106451613E-01
 -4.239852972E+01 -3.990111381E+01 -3.862935405E+01 -3.827134340E+01 -3.808130180E+01
 -3.782298134E+01 -3.737881130E+01 -3.693409288E+01 -3.652082218E+01 -3.619792789E+01
 -3.582786252E+01 -3.522869654E+01 -3.458243982E+01 -3.409500636E+01 -3.376993577E+01
 -3.365781395E+01 -3.399888202E+01 -3.370186471E+01 -3.285632389E+01 -3.258278987E+01
 -3.277096002E+01 -3.325279843E+01 -3.376925227E+01 -3.426309541E+01 -3.469880096E+01
 -3.506904444E+01 -3.543788592E+01 -3.599125372E+01 -3.722731470E+01 -3.902411885E+01
 -4.175805458E+01 -4.418042956E+01 -4.459960588E+01 -4.713546228E+01 -5.141560976E+01
 -5.466154530E+01 -5.686226551E+01 -5.818958630E+01 -5.894258679E+01 -5.873493793E+01
 -5.829443128E+01 -5.719917433E+01 -5.435854965E+01 -5.092376241E+01 -4.865632249E+01
 -4.814732849E+01 -4.999861933E+01 -5.376911147E+01 -5.801051174E+01 -6.146963644E+01
 -6.341068960E+01 -6.396401598E+01 -6.498710827E+01 -6.729347224E+01 -7.023819373E+01
 -7.299342621E+01 -7.576955524E+01 -7.909099756E+01 -8.297800361E+01 -8.685499089E+01
 -9.051751380E+01 -9.401284044E+01 -9.735889373E+01 -1.013079374E+02 -1.065075624E+02
 -1.125398865E+02 -1.168693740E+02 -1.207689435E+02 -1.255319046E+02 -1.302566898E+02
 -1.354998053E+02 -1.383447928E+02 -1.403951754E+02 -1.434020733E+02 -1.479044132E+02
 -1.527968768E+02 -1.538889580E+02 -1.557883560E+02 -1.576516736E+02 -1.585380877E+02
 -1.609547730E+02 -1.607721077E+02 -1.633237266E+02 -1.661526779E+02 -1.634285329E+02
 -1.634141254E+02 -1.605939065E+02 -1.569830505E+02 -1.544177622E+02 -1.525792262E+02
 -1.518519409E+02 -1.473311348E+02 -1.465028466E+02 -1.415183399E+02 -1.362298480E+02
 -1.340313007E+02 -1.290747259E+02 -1.232547591E+02 -1.120861293E+02 -1.077591189E+02
 -1.010857772E+02 -8.716634053E+01 -8.002308192E+01 -6.391565913E+01 -4.855865600E+01
 -3.573778520E+01 -1.698322352E+01 -9.014293703E-01 3.438640132E+01 8.270638197E+01
 1.119639274E+02 1.210418564E+02 1.233518569E+02 1.323260085E+02 1.595409828E+02
 2.061789977E+02 2.559610646E+02 2.862590980E+02 2.988300697E+02 3.175924070E+02
 3.398156044E+02 3.480667741E+02 3.425039022E+02 3.181702442E+02 2.809474631E+02
 2.214698448E+02 1.022752258E+02 -1.845661330E+01 -8.722680162E+01 -1.562600402E+02
 -2.364940717E+02 -3.009599398E+02 -3.643242186E+02 -4.371135740E+02 -4.760435508E+02
 -4.695201745E+02 -4.810494187E+02 -5.356030721E+02 -5.739596234E+02 -5.597794347E+02
 -5.277775208E+02 -5.482188275E+02 -5.805222271E+02 -5.675277666E+02 -5.821718096E+02
 -6.025983070E+02 -5.789781253E+02 -5.507329487E+02 -5.452152513E+02 -5.499900249E+02
 -5.478214347E+02 -5.351766588E+02 -5.192852707E+02 -5.125103033E+02 -5.054442989E+02
 -5.027293928E+02 -4.979165129E+02 -4.868651987E+02 -4.793195642E+02 -4.681066542E+02
 -4.583769075E+02 -4.480054953E+02 -4.398093169E+02 -4.343755820E+02 -4.271874310E+02
 -4.233438328E+02 -4.147653113E+02 -3.993984106E+02 -3.835982659E+02 -3.732002603E+02
 -3.669269068E+02 -3.624143401E+02 -3.580733321E+02 -3.488238841E+02 -3.407282020E+02
 -3.321861601E+02 -3.217003075E+02 -3.132175453E+02 -3.083933335E+02 -3.045547982E+02
 -2.955447809E+02 -2.857950594E+02 -2.775826877E+02 -2.708425588E+02 -2.638728418E+02
 -2.551757359E+02 -2.466967615E+02 -2.390711713E+02 -2.334960590E+02 -2.263310114E+02
 -2.172081022E+02 -2.089765985E+02 -2.020340811E+02 -1.968773301E+02 -1.899519185E+02