TITLE     = "Fluent Common Fluid Files Data"
VARIABLES = "X"
"Y"
"Z"
"Static Pressure"
DATASETAUXDATA Common.DensityVar="7"
DATASETAUXDATA Common.PressureVar="15"
DATASETAUXDATA Common.TemperatureVar="17"
DATASETAUXDATA Common.TurbulentDynamicViscosityVar="12"
DATASETAUXDATA Common.TurbulentKineticEnergyVar="10"
DATASETAUXDATA Common.UVar="18"
DATASETAUXDATA Common.VectorVarsAreVelocity="True"
DATASETAUXDATA Common.ViscosityVar="11"
DATASETAUXDATA Common.VVar="19"
DATASETAUXDATA Common.WVar="20"
ZONE T="Slice: Z=0.1 (region 1)"
 STRANDID=7, SOLUTIONTIME=0
 I=223, J=1, K=1, ZONETYPE=Ordered
 DATAPACKING=BLOCK
 DT=(DOUBLE DOUBLE DOUBLE DOUBLE )
 2.559303055E+00 2.559315316E+00 2.559326192E+00 2.559337053E+00 2.559347900E+00
 2.559358734E+00 2.559369553E+00 2.559380358E+00 2.559391149E+00 2.559401925E+00
 2.559412686E+00 2.559423434E+00 2.559434168E+00 2.559444888E+00 2.559455594E+00
 2.559466286E+00 2.559476965E+00 2.559487630E+00 2.559496338E+00 2.559504861E+00
 2.559513370E+00 2.559521862E+00 2.559530291E+00 2.559538673E+00 2.559547043E+00
 2.559555401E+00 2.559563747E+00 2.559572082E+00 2.559580404E+00 2.559588715E+00
 2.559597014E+00 2.559605255E+00 2.557810291E+00 2.556033100E+00 2.554250360E+00
 2.552485974E+00 2.550736704E+00 2.548994104E+00 2.547271167E+00 2.545553734E+00
 2.543849255E+00 2.542160644E+00 2.540487035E+00 2.538826372E+00 2.537174411E+00
 2.535532877E+00 2.533903265E+00 2.532272273E+00 2.530663465E+00 2.529198527E+00
 2.529059201E+00 2.527452570E+00 2.525844544E+00 2.524234676E+00 2.522623902E+00
 2.521011028E+00 2.519396064E+00 2.517772845E+00 2.516148882E+00 2.514523094E+00
 2.512889677E+00 2.511251273E+00 2.509609974E+00 2.507961070E+00 2.506308957E+00
 2.504650094E+00 2.502985468E+00 2.501313137E+00 2.499635407E+00 2.497956658E+00
 2.496267478E+00 2.494577079E+00 2.492881001E+00 2.491179488E+00 2.489478233E+00
 2.487767527E+00 2.486057496E+00 2.484337353E+00 2.482616845E+00 2.480897378E+00
 2.479171110E+00 2.477447528E+00 2.475718253E+00 2.473987046E+00 2.472258226E+00
 2.470524667E+00 2.468785515E+00 2.467050986E+00 2.465312926E+00 2.463576557E+00
 2.461841900E+00 2.460108835E+00 2.458373924E+00 2.456641804E+00 2.454909454E+00
 2.453182762E+00 2.451453076E+00 2.449726927E+00 2.448005462E+00 2.446287654E+00
 2.444573363E+00 2.442859854E+00 2.441157014E+00 2.439453335E+00 2.437758781E+00
 2.436073579E+00 2.434386314E+00 2.432715676E+00 2.431053025E+00 2.429404889E+00
 2.427786633E+00 2.426169539E+00 2.425460998E+00 2.424752804E+00 2.424053191E+00
 2.423375524E+00 2.422733711E+00 2.422132616E+00 2.421553622E+00 2.420951202E+00
 2.420319169E+00 2.419730892E+00 2.419250175E+00 2.418740953E+00 2.418244913E+00
 2.417955250E+00 2.417695354E+00 2.417448011E+00 2.417516751E+00 2.417744834E+00
 2.418023156E+00 2.418384430E+00 2.418814029E+00 2.419281504E+00 2.419792536E+00
 2.420348749E+00 2.420919435E+00 2.421495754E+00 2.422087567E+00 2.422705080E+00
 2.423332097E+00 2.423960659E+00 2.424584659E+00 2.426203699E+00 2.427839686E+00
 2.429493608E+00 2.431142629E+00 2.432811409E+00 2.434494005E+00 2.436177578E+00
 2.437852319E+00 2.439520423E+00 2.441199906E+00 2.442887716E+00 2.444574914E+00
 2.446263181E+00 2.447948503E+00 2.449628853E+00 2.451321606E+00 2.453005516E+00
 2.454699843E+00 2.456393033E+00 2.458089653E+00 2.459788807E+00 2.461486994E+00
 2.463189110E+00 2.464878384E+00 2.466570051E+00 2.468272207E+00 2.469986543E+00
 2.471699213E+00 2.473411001E+00 2.475121183E+00 2.476823133E+00 2.478530502E+00
 2.480237352E+00 2.481947734E+00 2.483666188E+00 2.483671517E+00 2.485381372E+00
 2.487090178E+00 2.488794671E+00 2.490504985E+00 2.492221007E+00 2.493937192E+00
 2.495648669E+00 2.497357425E+00 2.499070408E+00 2.500784526E+00 2.502497853E+00
 2.504208663E+00 2.505917953E+00 2.507629510E+00 2.509341298E+00 2.511051564E+00
 2.512760798E+00 2.514469816E+00 2.516179089E+00 2.517888813E+00 2.519598705E+00
 2.521308524E+00 2.523017035E+00 2.524725806E+00 2.526436767E+00 2.528148800E+00
 2.529863294E+00 2.531577402E+00 2.533294404E+00 2.535014303E+00 2.536736683E+00
 2.538460589E+00 2.540186108E+00 2.541916399E+00 2.543647168E+00 2.545380748E+00
 2.547115790E+00 2.548853066E+00 2.550593446E+00 2.552335100E+00 2.554079477E+00
 2.555821620E+00 2.557579427E+00 2.559303055E+00
 -1.499229547E+00 -1.499295655E+00 -1.499361627E+00 -1.499427626E+00 -1.499493650E+00
 -1.499559700E+00 -1.499625777E+00 -1.499691879E+00 -1.499758007E+00 -1.499824161E+00
 -1.499890341E+00 -1.499956547E+00 -1.500022778E+00 -1.500089035E+00 -1.500155318E+00
 -1.500221626E+00 -1.500287960E+00 -1.500354319E+00 -1.500420438E+00 -1.500486556E+00
 -1.500552698E+00 -1.500618862E+00 -1.500685050E+00 -1.500751260E+00 -1.500817492E+00
 -1.500883748E+00 -1.500950025E+00 -1.501016326E+00 -1.501082649E+00 -1.501148994E+00
 -1.501215362E+00 -1.501281756E+00 -1.501423597E+00 -1.501527665E+00 -1.501646372E+00
 -1.501796112E+00 -1.501973554E+00 -1.502161980E+00 -1.502390138E+00 -1.502622225E+00
 -1.502880159E+00 -1.503163968E+00 -1.503458699E+00 -1.503761581E+00 -1.504087170E+00
 -1.504435827E+00 -1.504817408E+00 -1.505216764E+00 -1.505646926E+00 -1.506036065E+00
 -1.506071219E+00 -1.506485007E+00 -1.506890984E+00 -1.507296400E+00 -1.507703128E+00
 -1.508108119E+00 -1.508509104E+00 -1.508893478E+00 -1.509278442E+00 -1.509661711E+00
 -1.510030432E+00 -1.510390456E+00 -1.510746546E+00 -1.511087389E+00 -1.511421065E+00
 -1.511739719E+00 -1.512052371E+00 -1.512348382E+00 -1.512632801E+00 -1.512912121E+00
 -1.513165987E+00 -1.513417668E+00 -1.513655635E+00 -1.513875008E+00 -1.514090518E+00
 -1.514278762E+00 -1.514472134E+00 -1.514639170E+00 -1.514797347E+00 -1.514954853E+00
 -1.515088493E+00 -1.515225629E+00 -1.515342383E+00 -1.515442888E+00 -1.515550966E+00
 -1.515624139E+00 -1.515663970E+00 -1.515713296E+00 -1.515723427E+00 -1.515736629E+00
 -1.515740265E+00 -1.515749222E+00 -1.515727987E+00 -1.515700219E+00 -1.515659011E+00
 -1.515596276E+00 -1.515525226E+00 -1.515432234E+00 -1.515329589E+00 -1.515202344E+00
 -1.515055029E+00 -1.514898887E+00 -1.514708833E+00 -1.514489489E+00 -1.514244365E+00
 -1.513964513E+00 -1.513658244E+00 -1.513312065E+00 -1.512928705E+00 -1.512501691E+00
 -1.511971657E+00 -1.511425482E+00 -1.511156951E+00 -1.510888235E+00 -1.510611254E+00
 -1.510306087E+00 -1.509949351E+00 -1.509536107E+00 -1.509096807E+00 -1.508679812E+00
 -1.508279031E+00 -1.507798510E+00 -1.507254822E+00 -1.506706584E+00 -1.506078663E+00
 -1.505402713E+00 -1.504714622E+00 -1.503937742E+00 -1.503162004E+00 -1.502476070E+00
 -1.501839246E+00 -1.501251986E+00 -1.500719248E+00 -1.500220373E+00 -1.499751535E+00
 -1.499340435E+00 -1.498978110E+00 -1.498631994E+00 -1.498297427E+00 -1.498004483E+00
 -1.497747990E+00 -1.497505294E+00 -1.497255268E+00 -1.496697682E+00 -1.496203559E+00
 -1.495761691E+00 -1.495392952E+00 -1.495072066E+00 -1.494774417E+00 -1.494501175E+00
 -1.494259767E+00 -1.494032110E+00 -1.493835354E+00 -1.493640294E+00 -1.493476109E+00
 -1.493315283E+00 -1.493177583E+00 -1.493054099E+00 -1.492944848E+00 -1.492847881E+00
 -1.492759810E+00 -1.492679972E+00 -1.492606829E+00 -1.492543338E+00 -1.492485933E+00
 -1.492451805E+00 -1.492420317E+00 -1.492406584E+00 -1.492396322E+00 -1.492391358E+00
 -1.492389818E+00 -1.492394340E+00 -1.492413140E+00 -1.492432225E+00 -1.492461203E+00
 -1.492489776E+00 -1.492532984E+00 -1.492579223E+00 -1.492579345E+00 -1.492610256E+00
 -1.492627418E+00 -1.492671405E+00 -1.492737337E+00 -1.492812355E+00 -1.492885097E+00
 -1.492964149E+00 -1.493039832E+00 -1.493112934E+00 -1.493196727E+00 -1.493277578E+00
 -1.493371316E+00 -1.493467279E+00 -1.493568774E+00 -1.493678989E+00 -1.493769760E+00
 -1.493862627E+00 -1.493977796E+00 -1.494101364E+00 -1.494229262E+00 -1.494358131E+00
 -1.494491645E+00 -1.494629201E+00 -1.494763363E+00 -1.494917464E+00 -1.495085731E+00
 -1.495266770E+00 -1.495440630E+00 -1.495619629E+00 -1.495802538E+00 -1.495990150E+00
 -1.496184383E+00 -1.496390044E+00 -1.496609928E+00 -1.496831299E+00 -1.497055694E+00
 -1.497280923E+00 -1.497519814E+00 -1.497767185E+00 -1.498017608E+00 -1.498273075E+00
 -1.498547142E+00 -1.498814974E+00 -1.499229547E+00
 1.000000000E-01 1.000000000E-01 1.000000000E-01 1.000000000E-01 1.000000000E-01
 1.000000000E-01 1.000000000E-01 1.000000000E-01 1.000000000E-01 1.000000000E-01
 1.000000000E-01 1.000000000E-01 1.000000000E-01 1.000000000E-01 1.000000000E-01
 1.000000000E-01 1.000000000E-01 1.000000000E-01 1.000000000E-01 1.000000000E-01
 1.000000000E-01 1.000000000E-01 1.000000000E-01 1.000000000E-01 1.000000000E-01
 1.000000000E-01 1.000000000E-01 1.000000000E-01 1.000000000E-01 1.000000000E-01
 1.000000000E-01 1.000000000E-01 1.000000000E-01 1.000000000E-01 1.000000000E-01
 1.000000000E-01 1.000000000E-01 1.000000000E-01 1.000000000E-01 1.000000000E-01
 1.000000000E-01 1.000000000E-01 1.000000000E-01 1.000000000E-01 1.000000000E-01
 1.000000000E-01 1.000000000E-01 1.000000000E-01 1.000000000E-01 1.000000000E-01
 1.000000000E-01 1.000000000E-01 1.000000000E-01 1.000000000E-01 1.000000000E-01
 1.000000000E-01 1.000000000E-01 1.000000000E-01 1.000000000E-01 1.000000000E-01
 1.000000000E-01 1.000000000E-01 1.000000000E-01 1.000000000E-01 1.000000000E-01
 1.000000000E-01 1.000000000E-01 1.000000000E-01 1.000000000E-01 1.000000000E-01
 1.000000000E-01 1.000000000E-01 1.000000000E-01 1.000000000E-01 1.000000000E-01
 1.000000000E-01 1.000000000E-01 1.000000000E-01 1.000000000E-01 1.000000000E-01
 1.000000000E-01 1.000000000E-01 1.000000000E-01 1.000000000E-01 1.000000000E-01
 1.000000000E-01 1.000000000E-01 1.000000000E-01 1.000000000E-01 1.000000000E-01
 1.000000000E-01 1.000000000E-01 1.000000000E-01 1.000000000E-01 1.000000000E-01
 1.000000000E-01 1.000000000E-01 1.000000000E-01 1.000000000E-01 1.000000000E-01
 1.000000000E-01 1.000000000E-01 1.000000000E-01 1.000000000E-01 1.000000000E-01
 1.000000000E-01 1.000000000E-01 1.000000000E-01 1.000000000E-01 1.000000000E-01
 1.000000000E-01 1.000000000E-01 1.000000000E-01 1.000000000E-01 1.000000000E-01
 1.000000000E-01 1.000000000E-01 1.000000000E-01 1.000000000E-01 1.000000000E-01
 1.000000000E-01 1.000000000E-01 1.000000000E-01 1.000000000E-01 1.000000000E-01
 1.000000000E-01 1.000000000E-01 1.000000000E-01 1.000000000E-01 1.000000000E-01
 1.000000000E-01 1.000000000E-01 1.000000000E-01 1.000000000E-01 1.000000000E-01
 1.000000000E-01 1.000000000E-01 1.000000000E-01 1.000000000E-01 1.000000000E-01
 1.000000000E-01 1.000000000E-01 1.000000000E-01 1.000000000E-01 1.000000000E-01
 1.000000000E-01 1.000000000E-01 1.000000000E-01 1.000000000E-01 1.000000000E-01
 1.000000000E-01 1.000000000E-01 1.000000000E-01 1.000000000E-01 1.000000000E-01
 1.000000000E-01 1.000000000E-01 1.000000000E-01 1.000000000E-01 1.000000000E-01
 1.000000000E-01 1.000000000E-01 1.000000000E-01 1.000000000E-01 1.000000000E-01
 1.000000000E-01 1.000000000E-01 1.000000000E-01 1.000000000E-01 1.000000000E-01
 1.000000000E-01 1.000000000E-01 1.000000000E-01 1.000000000E-01 1.000000000E-01
 1.000000000E-01 1.000000000E-01 1.000000000E-01 1.000000000E-01 1.000000000E-01
 1.000000000E-01 1.000000000E-01 1.000000000E-01 1.000000000E-01 1.000000000E-01
 1.000000000E-01 1.000000000E-01 1.000000000E-01 1.000000000E-01 1.000000000E-01
 1.000000000E-01 1.000000000E-01 1.000000000E-01 1.000000000E-01 1.000000000E-01
 1.000000000E-01 1.000000000E-01 1.000000000E-01 1.000000000E-01 1.000000000E-01
 1.000000000E-01 1.000000000E-01 1.000000000E-01 1.000000000E-01 1.000000000E-01
 1.000000000E-01 1.000000000E-01 1.000000000E-01 1.000000000E-01 1.000000000E-01
 1.000000000E-01 1.000000000E-01 1.000000000E-01 1.000000000E-01 1.000000000E-01
 1.000000000E-01 1.000000000E-01 1.000000000E-01 1.000000000E-01 1.000000000E-01
 1.000000000E-01 1.000000000E-01 1.000000000E-01
 -1.968718586E+02 -2.346413000E+02 -2.126164907E+02 -2.064824081E+02 -2.038901709E+02
 -2.028609168E+02 -2.020196844E+02 -2.005463579E+02 -1.998933187E+02 -1.992915807E+02
 -1.988051423E+02 -1.980751567E+02 -1.972961583E+02 -1.965333425E+02 -1.958680094E+02
 -1.952884522E+02 -1.948478196E+02 -1.944546955E+02 -1.939428167E+02 -1.934189178E+02
 -1.930479546E+02 -1.927910651E+02 -1.925257313E+02 -1.922554935E+02 -1.920618320E+02
 -1.919960685E+02 -1.919555963E+02 -1.923652741E+02 -1.936247535E+02 -1.950209538E+02
 -1.987441175E+02 -1.871922461E+02 -1.673513378E+02 -1.602157327E+02 -1.561901925E+02
 -1.531961581E+02 -1.506552041E+02 -1.480055368E+02 -1.450648949E+02 -1.416886242E+02
 -1.386684897E+02 -1.357591466E+02 -1.325684171E+02 -1.294721123E+02 -1.268616105E+02
 -1.247198811E+02 -1.233090458E+02 -1.223769137E+02 -1.214976886E+02 -1.210188104E+02
 -1.210266618E+02 -1.213469349E+02 -1.221563161E+02 -1.232502532E+02 -1.253469272E+02
 -1.282453382E+02 -1.304238590E+02 -1.331543794E+02 -1.369482146E+02 -1.411171255E+02
 -1.452375704E+02 -1.498147118E+02 -1.546184519E+02 -1.595936100E+02 -1.649737624E+02
 -1.709927788E+02 -1.771032217E+02 -1.823944406E+02 -1.881070121E+02 -1.930901554E+02
 -1.979947641E+02 -2.035545174E+02 -2.077298088E+02 -2.121428327E+02 -2.158675429E+02
 -2.205719553E+02 -2.251865242E+02 -2.270009246E+02 -2.302959666E+02 -2.331213925E+02
 -2.362914516E+02 -2.404310246E+02 -2.424797473E+02 -2.485247664E+02 -2.536737210E+02
 -2.519747460E+02 -2.522741512E+02 -2.507703635E+02 -2.481001028E+02 -2.480486542E+02
 -2.499866111E+02 -2.521286807E+02 -2.520359755E+02 -2.545615697E+02 -2.552294892E+02
 -2.564032016E+02 -2.595676643E+02 -2.624236248E+02 -2.655739432E+02 -2.666713002E+02
 -2.732049080E+02 -2.798396209E+02 -2.826741665E+02 -2.892849306E+02 -2.924271259E+02
 -2.994139983E+02 -3.108195237E+02 -3.226311618E+02 -3.407373411E+02 -3.398468589E+02
 -3.423141267E+02 -3.586105620E+02 -3.767814246E+02 -4.139981464E+02 -4.509078765E+02
 -4.546771207E+02 -3.971645433E+02 -3.050874739E+02 -2.735711321E+02 -3.381156160E+02
 -3.668734141E+02 -2.701051166E+02 -2.137180135E+02 -2.282954578E+02 -1.243084200E+02
 1.079379722E+01 5.962280783E+01 1.533853331E+02 2.694863032E+02 3.212777220E+02
 3.449974841E+02 3.540881493E+02 3.527853475E+02 3.451836798E+02 3.331527491E+02
 3.192741597E+02 3.075469509E+02 2.963231211E+02 2.808210723E+02 2.655822892E+02
 2.572076724E+02 2.529786427E+02 2.395632444E+02 2.165037381E+02 1.970630419E+02
 1.770522378E+02 1.573682581E+02 1.454827425E+02 1.362356047E+02 1.242535208E+02
 1.111018625E+02 9.814751257E+01 8.878706196E+01 8.011862952E+01 7.053510812E+01
 6.245360447E+01 5.302022471E+01 4.569250092E+01 3.990294639E+01 3.348821453E+01
 2.824223488E+01 2.307821078E+01 1.759686168E+01 1.180262788E+01 5.115540039E+00
 2.690215075E-01 -4.503329381E+00 -7.927011529E+00 -8.814661414E+00 -9.682819187E+00
 -1.162702927E+01 -1.480615169E+01 -1.761829051E+01 -2.008296223E+01 -2.160491110E+01
 -2.402233377E+01 -2.550606278E+01 -2.269451119E+01 -2.269244804E+01 -2.206321016E+01
 -2.877584318E+01 -3.462320291E+01 -3.335408214E+01 -2.998998876E+01 -2.882086521E+01
 -2.852151924E+01 -2.850357289E+01 -2.930034466E+01 -2.954405600E+01 -3.039794464E+01
 -3.170232870E+01 -3.157457639E+01 -3.083328679E+01 -2.893562724E+01 -2.929359111E+01
 -3.338222298E+01 -3.440780987E+01 -3.264118857E+01 -3.131126184E+01 -3.099497748E+01
 -3.083597955E+01 -3.041904517E+01 -3.110935501E+01 -3.165879819E+01 -3.116418770E+01
 -3.012099777E+01 -2.983470800E+01 -3.066561813E+01 -3.192892803E+01 -3.363281705E+01
 -3.590770543E+01 -3.855581028E+01 -4.121015099E+01 -4.429912912E+01 -4.832037152E+01
 -5.373676883E+01 -6.027013836E+01 -6.762217797E+01 -7.679491595E+01 -8.890237337E+01
 -1.019907053E+02 -1.251183370E+02 -1.968718586E+02
ZONE T="Slice: Z=0.110645 (region 1)"
 STRANDID=7, SOLUTIONTIME=0
 I=221, J=1, K=1, ZONETYPE=Ordered
 DATAPACKING=BLOCK
 DT=(DOUBLE DOUBLE DOUBLE DOUBLE )
 2.566367336E+00 2.566367350E+00 2.566367350E+00 2.566367350E+00 2.566367350E+00
 2.566367350E+00 2.566367350E+00 2.566367350E+00 2.566367350E+00 2.566367350E+00
 2.566367350E+00 2.566367350E+00 2.566367350E+00 2.566367349E+00 2.566367349E+00
 2.566367349E+00 2.566367349E+00 2.566367349E+00 2.566367349E+00 2.566367349E+00
 2.566367349E+00 2.566367349E+00 2.566367349E+00 2.566367349E+00 2.566367349E+00
 2.566367349E+00 2.566367349E+00 2.566367349E+00 2.566367349E+00 2.566367349E+00
 2.566367349E+00 2.566367336E+00 2.564688336E+00 2.562978589E+00 2.561274182E+00
 2.559567753E+00 2.557862010E+00 2.556155495E+00 2.554449277E+00 2.552743309E+00
 2.551037382E+00 2.549331445E+00 2.547624752E+00 2.545914432E+00 2.544203230E+00
 2.542492363E+00 2.540783007E+00 2.539078129E+00 2.537378437E+00 2.535679168E+00
 2.533977758E+00 2.532273213E+00 2.530566170E+00 2.528859445E+00 2.527152737E+00
 2.525445688E+00 2.523738434E+00 2.522030393E+00 2.520320451E+00 2.518610512E+00
 2.516898366E+00 2.515185669E+00 2.513471621E+00 2.511755849E+00 2.510040075E+00
 2.508324301E+00 2.506608492E+00 2.504890514E+00 2.503171191E+00 2.501451432E+00
 2.499729527E+00 2.498007509E+00 2.496282526E+00 2.494556635E+00 2.492830744E+00
 2.491104847E+00 2.489378836E+00 2.487649485E+00 2.485919795E+00 2.484188892E+00
 2.482456874E+00 2.480724637E+00 2.478990426E+00 2.477256192E+00 2.475520270E+00
 2.473783564E+00 2.472046324E+00 2.470307686E+00 2.468569037E+00 2.466829619E+00
 2.465090081E+00 2.463350227E+00 2.461610193E+00 2.459870159E+00 2.458130876E+00
 2.456391648E+00 2.454653290E+00 2.452916434E+00 2.451181378E+00 2.449450239E+00
 2.447719090E+00 2.445995116E+00 2.444275020E+00 2.442559332E+00 2.440858437E+00
 2.439157806E+00 2.437473755E+00 2.435804177E+00 2.434153880E+00 2.432549704E+00
 2.430970803E+00 2.430285740E+00 2.429600744E+00 2.428925123E+00 2.428276023E+00
 2.427676664E+00 2.427137556E+00 2.426623898E+00 2.426078284E+00 2.425535214E+00
 2.425097460E+00 2.424748681E+00 2.424377379E+00 2.424126609E+00 2.423991711E+00
 2.423840283E+00 2.423785535E+00 2.423894189E+00 2.424120984E+00 2.424415475E+00
 2.424768287E+00 2.425173154E+00 2.425614301E+00 2.426101520E+00 2.426646771E+00
 2.427220966E+00 2.427799131E+00 2.428391498E+00 2.429016842E+00 2.429665905E+00
 2.430320046E+00 2.430970803E+00 2.432526637E+00 2.434126035E+00 2.435726861E+00
 2.437375212E+00 2.439044479E+00 2.440722931E+00 2.442404428E+00 2.444096901E+00
 2.445799427E+00 2.447509911E+00 2.449223687E+00 2.450939459E+00 2.452660103E+00
 2.454380849E+00 2.456107229E+00 2.457834092E+00 2.459563314E+00 2.461293922E+00
 2.463024989E+00 2.464757175E+00 2.466489359E+00 2.468222211E+00 2.469955135E+00
 2.471688333E+00 2.473421423E+00 2.475154133E+00 2.476886704E+00 2.478619456E+00
 2.480351930E+00 2.482084351E+00 2.483816057E+00 2.485546874E+00 2.487277454E+00
 2.489006705E+00 2.490735956E+00 2.492465179E+00 2.494194401E+00 2.495922352E+00
 2.497648691E+00 2.499375028E+00 2.501101323E+00 2.502827618E+00 2.504551784E+00
 2.506275303E+00 2.507998822E+00 2.509722340E+00 2.511445609E+00 2.513166242E+00
 2.514886865E+00 2.516607488E+00 2.518328109E+00 2.520047678E+00 2.521765563E+00
 2.523483449E+00 2.525201334E+00 2.526919225E+00 2.528636116E+00 2.530352581E+00
 2.532069047E+00 2.533785512E+00 2.535502018E+00 2.537218571E+00 2.538935085E+00
 2.540651596E+00 2.542368106E+00 2.544084627E+00 2.545801170E+00 2.547517714E+00
 2.549234264E+00 2.550950819E+00 2.552667375E+00 2.554383976E+00 2.556100555E+00
 2.557817090E+00 2.559533624E+00 2.561250379E+00 2.562963497E+00 2.564685045E+00
 2.566367336E+00
 -1.502240746E+00 -1.502321479E+00 -1.502402211E+00 -1.502482944E+00 -1.502563676E+00
 -1.502644409E+00 -1.502725141E+00 -1.502805874E+00 -1.502886606E+00 -1.502967339E+00
 -1.503048071E+00 -1.503128804E+00 -1.503209536E+00 -1.503290269E+00 -1.503371001E+00
 -1.503451734E+00 -1.503532466E+00 -1.503613198E+00 -1.503693931E+00 -1.503774663E+00
 -1.503855396E+00 -1.503936128E+00 -1.504016861E+00 -1.504097593E+00 -1.504178326E+00
 -1.504259058E+00 -1.504339791E+00 -1.504420523E+00 -1.504501256E+00 -1.504581988E+00
 -1.504662721E+00 -1.504743454E+00 -1.505199044E+00 -1.505524975E+00 -1.505874318E+00
 -1.506214876E+00 -1.506560111E+00 -1.506899739E+00 -1.507240927E+00 -1.507583544E+00
 -1.507926364E+00 -1.508269342E+00 -1.508608652E+00 -1.508928915E+00 -1.509244387E+00
 -1.509561866E+00 -1.509887671E+00 -1.510236760E+00 -1.510608138E+00 -1.510981089E+00
 -1.511346143E+00 -1.511698637E+00 -1.512039381E+00 -1.512378200E+00 -1.512717080E+00
 -1.513052671E+00 -1.513386593E+00 -1.513717071E+00 -1.514038947E+00 -1.514360823E+00
 -1.514671594E+00 -1.514979756E+00 -1.515280110E+00 -1.515570102E+00 -1.515860094E+00
 -1.516150087E+00 -1.516439936E+00 -1.516716123E+00 -1.516983157E+00 -1.517247624E+00
 -1.517499229E+00 -1.517750316E+00 -1.517979186E+00 -1.518200721E+00 -1.518422256E+00
 -1.518643765E+00 -1.518864675E+00 -1.519059643E+00 -1.519251912E+00 -1.519430953E+00
 -1.519596555E+00 -1.519760013E+00 -1.519901021E+00 -1.520041838E+00 -1.520161294E+00
 -1.520269453E+00 -1.520369166E+00 -1.520441781E+00 -1.520514248E+00 -1.520559154E+00
 -1.520597396E+00 -1.520619247E+00 -1.520615064E+00 -1.520610444E+00 -1.520557542E+00
 -1.520502574E+00 -1.520425059E+00 -1.520319511E+00 -1.520188321E+00 -1.520012121E+00
 -1.519835921E+00 -1.519599778E+00 -1.519336941E+00 -1.519046586E+00 -1.518679197E+00
 -1.518310975E+00 -1.517873152E+00 -1.517382852E+00 -1.516831258E+00 -1.516156908E+00
 -1.515425709E+00 -1.515118181E+00 -1.514810396E+00 -1.514482838E+00 -1.514106043E+00
 -1.513653860E+00 -1.513130487E+00 -1.512582781E+00 -1.512066479E+00 -1.511548307E+00
 -1.510937044E+00 -1.510272502E+00 -1.509619774E+00 -1.508911922E+00 -1.508173160E+00
 -1.507437638E+00 -1.506688694E+00 -1.505945631E+00 -1.505229709E+00 -1.504538895E+00
 -1.503875978E+00 -1.503243485E+00 -1.502635771E+00 -1.502064324E+00 -1.501547950E+00
 -1.501063964E+00 -1.500584730E+00 -1.500123167E+00 -1.499707379E+00 -1.499329673E+00
 -1.498960838E+00 -1.498586061E+00 -1.497822199E+00 -1.497154385E+00 -1.496489990E+00
 -1.495954342E+00 -1.495487826E+00 -1.495055588E+00 -1.494635275E+00 -1.494261687E+00
 -1.493936935E+00 -1.493657234E+00 -1.493398185E+00 -1.493152851E+00 -1.492944546E+00
 -1.492736724E+00 -1.492583192E+00 -1.492434564E+00 -1.492316871E+00 -1.492221648E+00
 -1.492134996E+00 -1.492075062E+00 -1.492015102E+00 -1.491979625E+00 -1.491947328E+00
 -1.491938163E+00 -1.491959856E+00 -1.492001888E+00 -1.492049469E+00 -1.492089895E+00
 -1.492140745E+00 -1.492193440E+00 -1.492266040E+00 -1.492357307E+00 -1.492453000E+00
 -1.492570253E+00 -1.492687511E+00 -1.492805219E+00 -1.492922926E+00 -1.493058015E+00
 -1.493212356E+00 -1.493366718E+00 -1.493521518E+00 -1.493676322E+00 -1.493853264E+00
 -1.494036419E+00 -1.494219573E+00 -1.494402728E+00 -1.494588208E+00 -1.494796742E+00
 -1.495005352E+00 -1.495213962E+00 -1.495422580E+00 -1.495639713E+00 -1.495869779E+00
 -1.496099845E+00 -1.496329911E+00 -1.496559942E+00 -1.496797314E+00 -1.497037743E+00
 -1.497278171E+00 -1.497518600E+00 -1.497758776E+00 -1.497998622E+00 -1.498238706E+00
 -1.498478810E+00 -1.498718914E+00 -1.498958942E+00 -1.499198812E+00 -1.499438678E+00
 -1.499678501E+00 -1.499918284E+00 -1.500158066E+00 -1.500397567E+00 -1.500637219E+00
 -1.500877151E+00 -1.501117087E+00 -1.501355493E+00 -1.501603280E+00 -1.501824920E+00
 -1.502240746E+00
 1.106451613E-01 1.106451613E-01 1.106451613E-01 1.106451613E-01 1.106451613E-01
 1.106451613E-01 1.106451613E-01 1.106451613E-01 1.106451613E-01 1.106451613E-01
 1.106451613E-01 1.106451613E-01 1.106451613E-01 1.106451613E-01 1.106451613E-01
 1.106451613E-01 1.106451613E-01 1.106451613E-01 1.106451613E-01 1.106451613E-01
 1.106451613E-01 1.106451613E-01 1.106451613E-01 1.106451613E-01 1.106451613E-01
 1.106451613E-01 1.106451613E-01 1.106451613E-01 1.106451613E-01 1.106451613E-01
 1.106451613E-01 1.106451613E-01 1.106451613E-01 1.106451613E-01 1.106451613E-01
 1.106451613E-01 1.106451613E-01 1.106451613E-01 1.106451613E-01 1.106451613E-01
 1.106451613E-01 1.106451613E-01 1.106451613E-01 1.106451613E-01 1.106451613E-01
 1.106451613E-01 1.106451613E-01 1.106451613E-01 1.106451613E-01 1.106451613E-01
 1.106451613E-01 1.106451613E-01 1.106451613E-01 1.106451613E-01 1.106451613E-01
 1.106451613E-01 1.106451613E-01 1.106451613E-01 1.106451613E-01 1.106451613E-01
 1.106451613E-01 1.106451613E-01 1.106451613E-01 1.106451613E-01 1.106451613E-01
 1.106451613E-01 1.106451613E-01 1.106451613E-01 1.106451613E-01 1.106451613E-01
 1.106451613E-01 1.106451613E-01 1.106451613E-01 1.106451613E-01 1.106451613E-01
 1.106451613E-01 1.106451613E-01 1.106451613E-01 1.106451613E-01 1.106451613E-01
 1.106451613E-01 1.106451613E-01 1.106451613E-01 1.106451613E-01 1.106451613E-01
 1.106451613E-01 1.106451613E-01 1.106451613E-01 1.106451613E-01 1.106451613E-01
 1.106451613E-01 1.106451613E-01 1.106451613E-01 1.106451613E-01 1.106451613E-01
 1.106451613E-01 1.106451613E-01 1.106451613E-01 1.106451613E-01 1.106451613E-01
 1.106451613E-01 1.106451613E-01 1.106451613E-01 1.106451613E-01 1.106451613E-01
 1.106451613E-01 1.106451613E-01 1.106451613E-01 1.106451613E-01 1.106451613E-01
 1.106451613E-01 1.106451613E-01 1.106451613E-01 1.106451613E-01 1.106451613E-01
 1.106451613E-01 1.106451613E-01 1.106451613E-01 1.106451613E-01 1.106451613E-01
 1.106451613E-01 1.106451613E-01 1.106451613E-01 1.106451613E-01 1.106451613E-01
 1.106451613E-01 1.106451613E-01 1.106451613E-01 1.106451613E-01 1.106451613E-01
 1.106451613E-01 1.106451613E-01 1.106451613E-01 1.106451613E-01 1.106451613E-01
 1.106451613E-01 1.106451613E-01 1.106451613E-01 1.106451613E-01 1.106451613E-01
 1.106451613E-01 1.106451613E-01 1.106451613E-01 1.106451613E-01 1.106451613E-01
 1.106451613E-01 1.106451613E-01 1.106451613E-01 1.106451613E-01 1.106451613E-01
 1.106451613E-01 1.106451613E-01 1.106451613E-01 1.106451613E-01 1.106451613E-01
 1.106451613E-01 1.106451613E-01 1.106451613E-01 1.106451613E-01 1.106451613E-01
 1.106451613E-01 1.106451613E-01 1.106451613E-01 1.106451613E-01 1.106451613E-01
 1.106451613E-01 1.106451613E-01 1.106451613E-01 1.106451613E-01 1.106451613E-01
 1.106451613E-01 1.106451613E-01 1.106451613E-01 1.106451613E-01 1.106451613E-01
 1.106451613E-01 1.106451613E-01 1.106451613E-01 1.106451613E-01 1.106451613E-01
 1.106451613E-01 1.106451613E-01 1.106451613E-01 1.106451613E-01 1.106451613E-01
 1.106451613E-01 1.106451613E-01 1.106451613E-01 1.106451613E-01 1.106451613E-01
 1.106451613E-01 1.106451613E-01 1.106451613E-01 1.106451613E-01 1.106451613E-01
 1.106451613E-01 1.106451613E-01 1.106451613E-01 1.106451613E-01 1.106451613E-01
 1.106451613E-01 1.106451613E-01 1.106451613E-01 1.106451613E-01 1.106451613E-01
 1.106451613E-01 1.106451613E-01 1.106451613E-01 1.106451613E-01 1.106451613E-01
 1.106451613E-01 1.106451613E-01 1.106451613E-01 1.106451613E-01 1.106451613E-01
 1.106451613E-01 1.106451613E-01 1.106451613E-01 1.106451613E-01 1.106451613E-01
 1.106451613E-01
 -2.031158679E+02 -2.230480738E+02 -2.022997555E+02 -1.957043615E+02 -1.922340227E+02
 -1.897987457E+02 -1.878849082E+02 -1.862644685E+02 -1.847820916E+02 -1.834802574E+02
 -1.823866215E+02 -1.814342771E+02 -1.806333863E+02 -1.799791091E+02 -1.794965702E+02
 -1.791673765E+02 -1.790249206E+02 -1.790802287E+02 -1.792232783E+02 -1.794544481E+02
 -1.797870997E+02 -1.801925004E+02 -1.806224010E+02 -1.810537050E+02 -1.815097027E+02
 -1.820026162E+02 -1.825692813E+02 -1.834147179E+02 -1.851541099E+02 -1.884482126E+02
 -1.938888589E+02 -1.828147989E+02 -1.653317475E+02 -1.618243619E+02 -1.607129399E+02
 -1.600645098E+02 -1.596273931E+02 -1.589815976E+02 -1.582262602E+02 -1.571650082E+02
 -1.562691067E+02 -1.554407140E+02 -1.540047761E+02 -1.522321387E+02 -1.507581015E+02
 -1.497549274E+02 -1.495081607E+02 -1.500643048E+02 -1.508671500E+02 -1.514226073E+02
 -1.515780558E+02 -1.514367872E+02 -1.518986177E+02 -1.532518526E+02 -1.551112729E+02
 -1.569878701E+02 -1.590101553E+02 -1.615233999E+02 -1.645662904E+02 -1.678116109E+02
 -1.712575180E+02 -1.749896451E+02 -1.789962729E+02 -1.836835426E+02 -1.893320659E+02
 -1.955547543E+02 -2.008260167E+02 -2.061237030E+02 -2.119923112E+02 -2.177894120E+02
 -2.241121198E+02 -2.290485094E+02 -2.338123245E+02 -2.392544744E+02 -2.457428914E+02
 -2.525980838E+02 -2.569729194E+02 -2.622440710E+02 -2.675599248E+02 -2.724902314E+02
 -2.787075857E+02 -2.832917318E+02 -2.902172038E+02 -2.972573032E+02 -3.001096817E+02
 -3.052841322E+02 -3.082437843E+02 -3.106698796E+02 -3.144093721E+02 -3.190310537E+02
 -3.246420300E+02 -3.274300950E+02 -3.337659772E+02 -3.371130833E+02 -3.411483341E+02
 -3.484039598E+02 -3.538365321E+02 -3.595461802E+02 -3.614397526E+02 -3.718846993E+02
 -3.802930616E+02 -3.824659503E+02 -3.945369042E+02 -3.975121823E+02 -4.057888154E+02
 -4.219289495E+02 -4.357729793E+02 -4.588991826E+02 -4.533347491E+02 -4.380478078E+02
 -4.528700179E+02 -4.909573183E+02 -5.486960309E+02 -5.997854489E+02 -6.016554816E+02
 -5.168148687E+02 -3.855527424E+02 -3.441469376E+02 -4.246212955E+02 -4.450161266E+02
 -3.130846509E+02 -2.421193192E+02 -2.355132633E+02 -1.152723745E+02 -8.758013023E+00
 2.638743800E+01 1.015581315E+02 1.946286751E+02 2.520937086E+02 2.876329624E+02
 3.112061862E+02 3.235171299E+02 3.290808607E+02 3.290605224E+02 3.225723106E+02
 3.138939998E+02 3.049184973E+02 2.924845629E+02 2.787928838E+02 2.692084541E+02
 2.627138940E+02 2.465474817E+02 2.206743286E+02 2.004784209E+02 1.753051123E+02
 1.490701290E+02 1.359104933E+02 1.257318193E+02 1.100971448E+02 9.195867140E+01
 7.680080996E+01 6.651979447E+01 5.866121937E+01 4.786927879E+01 3.838127456E+01
 2.725109823E+01 1.750445103E+01 1.105669906E+01 2.954627785E+00 -2.783188761E+00
 -8.747843818E+00 -1.390450346E+01 -1.949991342E+01 -2.609745633E+01 -3.124403688E+01
 -3.824166988E+01 -4.267658081E+01 -4.257532955E+01 -4.088946219E+01 -4.125493822E+01
 -4.411533145E+01 -4.834562913E+01 -5.239994576E+01 -5.299555527E+01 -5.429579331E+01
 -5.457174023E+01 -5.229465076E+01 -5.132067104E+01 -5.401082100E+01 -5.800201322E+01
 -5.689972036E+01 -5.383270372E+01 -5.264581472E+01 -5.345921104E+01 -5.411149543E+01
 -5.276000553E+01 -5.139343894E+01 -5.170677152E+01 -5.457113223E+01 -5.480598820E+01
 -5.230686856E+01 -5.080851744E+01 -5.121832151E+01 -5.380047722E+01 -5.351361979E+01