TITLE     = "Fluent Common Fluid Files Data"
VARIABLES = "X"
"Y"
"Z"
"Static Pressure"
DATASETAUXDATA Common.DensityVar="7"
DATASETAUXDATA Common.PressureVar="15"
DATASETAUXDATA Common.TemperatureVar="17"
DATASETAUXDATA Common.TurbulentDynamicViscosityVar="12"
DATASETAUXDATA Common.TurbulentKineticEnergyVar="10"
DATASETAUXDATA Common.UVar="18"
DATASETAUXDATA Common.VectorVarsAreVelocity="True"
DATASETAUXDATA Common.ViscosityVar="11"
DATASETAUXDATA Common.VVar="19"
DATASETAUXDATA Common.WVar="20"
ZONE T="Slice: Y=-1.48"
 STRANDID=7, SOLUTIONTIME=0
 Nodes=542, Elements=542, ZONETYPE=FELineSeg
 DATAPACKING=BLOCK
 DT=(DOUBLE DOUBLE DOUBLE DOUBLE )
 2.539488920E+00 2.539490630E+00 2.537840056E+00 2.539491884E+00 2.536119338E+00
 2.539493149E+00 2.534402100E+00 2.539494426E+00 2.532676862E+00 2.539495196E+00
 2.530950816E+00 2.539495432E+00 2.529226401E+00 2.539495685E+00 2.527502732E+00
 2.539495954E+00 2.525773750E+00 2.539496239E+00 2.524045487E+00 2.539496541E+00
 2.520604533E+00 2.521809178E+00 2.522318042E+00 2.539496859E+00 2.518901075E+00
 2.539497290E+00 2.517187445E+00 2.539497954E+00 2.515473960E+00 2.539499068E+00
 2.513757641E+00 2.539500193E+00 2.512042153E+00 2.539501331E+00 2.510336256E+00
 2.539502481E+00 2.508629984E+00 2.539503644E+00 2.506928039E+00 2.539504815E+00
 2.505216178E+00 2.539505994E+00 2.503496960E+00 2.539507184E+00 2.501780267E+00
 2.539508386E+00 2.500065726E+00 2.539509600E+00 2.498349364E+00 2.539510545E+00
 2.496634636E+00 2.539510628E+00 2.494921250E+00 2.539510729E+00 2.493209613E+00
 2.539510848E+00 2.491477825E+00 2.539510984E+00 2.489741442E+00 2.539511138E+00
 2.488016223E+00 2.539511309E+00 2.486296220E+00 2.539510933E+00 2.484572761E+00
 2.537695485E+00 2.482838752E+00 2.535885260E+00 2.481104740E+00 2.534063549E+00
 2.479371634E+00 2.532233819E+00 2.477635556E+00 2.530398053E+00 2.475896464E+00
 2.528560134E+00 2.474155395E+00 2.526708976E+00 2.472415412E+00 2.524865147E+00
 2.470676029E+00 2.523015775E+00 2.468936150E+00 2.521159418E+00 2.467190659E+00
 2.519306027E+00 2.465418062E+00 2.517458520E+00 2.463642358E+00 2.515614204E+00
 2.461878849E+00 2.513774666E+00 2.460117421E+00 2.511945405E+00 2.458349920E+00
 2.510108712E+00 2.456578956E+00 2.508282723E+00 2.454799533E+00 2.506465142E+00
 2.453007475E+00 2.504653158E+00 2.451214949E+00 2.502846969E+00 2.449420163E+00
 2.501043711E+00 2.447627954E+00 2.499243492E+00 2.445829458E+00 2.497443655E+00
 2.444018834E+00 2.495644869E+00 2.442196989E+00 2.493846017E+00 2.440365057E+00
 2.492045452E+00 2.438531200E+00 2.490244531E+00 2.436683723E+00 2.488441339E+00
 2.434835916E+00 2.486633844E+00 2.432974724E+00 2.484826020E+00 2.431110979E+00
 2.483012915E+00 2.429237082E+00 2.481199266E+00 2.427352983E+00 2.479381085E+00
 2.425461603E+00 2.477557016E+00 2.423553260E+00 2.475733386E+00 2.421637160E+00
 2.473903383E+00 2.419707839E+00 2.472077143E+00 2.417769982E+00 2.470244275E+00
 2.415823781E+00 2.468410798E+00 2.413862784E+00 2.466580223E+00 2.411880458E+00
 2.464743738E+00 2.409888100E+00 2.462912000E+00 2.407886951E+00 2.461079699E+00
 2.406724506E+00 2.459251062E+00 2.405895647E+00 2.457420987E+00 2.403918405E+00
 2.455589554E+00 2.401921045E+00 2.453764414E+00 2.399926438E+00 2.451934385E+00
 2.397921299E+00 2.450108880E+00 2.397364602E+00 2.448287516E+00 2.396811826E+00
 2.446465533E+00 2.396260047E+00 2.444650290E+00 2.395705726E+00 2.442845206E+00
 2.395150744E+00 2.441042158E+00 2.394599044E+00 2.439242386E+00 2.394053369E+00
 2.437449498E+00 2.393515634E+00 2.435655226E+00 2.392989480E+00 2.433861302E+00
 2.392479059E+00 2.432068847E+00 2.391988689E+00 2.430280230E+00 2.391532989E+00
 2.428496960E+00 2.391136506E+00 2.426713459E+00 2.390800005E+00 2.424941002E+00
 2.390550620E+00 2.423167827E+00 2.390463314E+00 2.421400519E+00 2.390477037E+00
 2.419640258E+00 2.390571654E+00 2.417885838E+00 2.390799729E+00 2.416143645E+00
 2.391170019E+00 2.414402572E+00 2.391618421E+00 2.412677023E+00 2.392120050E+00
 2.410959844E+00 2.392683928E+00 2.409253638E+00 2.393283123E+00 2.407569003E+00
 2.393869978E+00 2.405888403E+00 2.394457459E+00 2.404231251E+00 2.395083211E+00
 2.402594609E+00 2.395754271E+00 2.400981112E+00 2.396452136E+00 2.399415178E+00
 2.397156614E+00 2.397859968E+00 -7.036664825E+01 -6.894029162E+01 -6.751315262E+01
 -7.211550460E+01 -6.604412649E+01 -7.384855605E+01 -6.454525715E+01 -7.550780473E+01
 -6.304682442E+01 -7.714527015E+01 -6.148520360E+01 -7.871043240E+01 -5.992200568E+01
 -8.024709719E+01 -5.833058652E+01 -8.171422814E+01 -5.670570140E+01 -8.314649190E+01
 -5.507980586E+01 -8.451088158E+01 -5.340480552E+01 -8.583534942E+01 -5.172322470E+01
 -8.709251465E+01 -5.002364723E+01 -8.887470345E+01 -8.830667781E+01 -8.945309681E+01
 -4.828926837E+01 -9.055382971E+01 -4.655484770E+01 -9.158588643E+01 -4.478259645E+01
 -9.257169526E+01 -4.300210608E+01 -9.348535069E+01 -4.121527243E+01 -9.435483646E+01
 -3.938381010E+01 -9.514643218E+01 -3.570563212E+01 -3.583958260E+01 -3.755984458E+01
 -9.589888167E+01 -3.384617289E+01 -9.656540704E+01 -3.197299673E+01 -9.720009207E+01
 -3.008015596E+01 -9.773865028E+01 -2.818808140E+01 -9.803045254E+01 -2.626839904E+01
 -9.831542939E+01 -2.435001374E+01 -9.854130190E+01 -2.241572493E+01 -9.876724898E+01
 -2.047447237E+01 -9.899314389E+01 -1.852401768E+01 -9.916603655E+01 -1.656689924E+01
 -9.932640808E+01 -1.460023474E+01 -9.948694384E+01 -1.263389855E+01 -9.961047711E+01
 -1.065437767E+01 -6.894494642E+01 -7.036664838E+01 -7.205204376E+01 -9.970616356E+01
 -8.680359625E+00 -6.752247578E+01 -7.372149922E+01 -9.980176676E+01 -6.691826263E+00
 -6.605879760E+01 -7.532778896E+01 -9.987306839E+01 -4.711762867E+00 -6.456483033E+01
 -7.690465340E+01 -9.990477802E+01 -2.718790464E+00 -6.307134958E+01 -7.842819516E+01
 -9.993651513E+01 -7.353545071E-01 -6.151589982E+01 -7.990826651E+01 -9.995236878E+01
 1.258292735E+00 -5.995786665E+01 -8.134540295E+01 -9.992065567E+01 3.241743657E+00
 -5.837321103E+01 -8.272497228E+01 -9.988891951E+01 5.233928302E+00 -5.675363916E+01
 -8.407203196E+01 -9.984968391E+01 7.213170066E+00 -5.513320014E+01 -8.534781282E+01
 -9.975395621E+01 9.201848109E+00 -5.346556284E+01 -8.660109498E+01 -9.965836702E+01
 1.117386875E+01 -5.178956882E+01 -8.819252528E+01 -8.777027744E+01 -8.892607277E+01
 -9.956264214E+01 1.315392759E+01 -5.009782264E+01 -8.998636463E+01 -9.940669091E+01
 1.511683236E+01 -4.836908003E+01 -9.104099856E+01 -9.924615791E+01 1.708355435E+01
 -4.664058828E+01 -9.199058870E+01 -9.908573904E+01 1.903646113E+01 -4.487652671E+01
 -9.293996040E+01 -9.887997051E+01 2.098570998E+01 -4.310198364E+01 -9.377798406E+01
 -9.865406797E+01 2.292736558E+01 -4.132367263E+01 -9.461547466E+01 -9.842805172E+01
 2.485645024E+01 -3.949807232E+01 -9.534415653E+01 -9.817594343E+01 2.677496441E+01
 -3.768046547E+01 -9.606879024E+01 -9.788396624E+01 2.868776718E+01 -3.398163904E+01
 -3.551941687E+01 -3.583486014E+01 -9.668534237E+01 -9.759211376E+01 3.057925792E+01
 -3.211723797E+01 -9.729647354E+01 3.246797572E+01 -3.023040341E+01 3.433725241E+01
 -2.834505094E+01 3.619733474E+01 -2.643397401E+01 3.637868822E+01 -2.452204724E+01
 3.804205082E+01 -2.259636295E+01 3.986552280E+01 -2.066118317E+01 4.169089530E+01
 -1.871773544E+01 4.347325679E+01 -1.676881303E+01 4.525428149E+01 -1.480873667E+01
 4.701451935E+01 -1.285043790E+01 4.874828425E+01 -1.087755374E+01 5.047993113E+01
 -8.911352941E+00 5.216938782E+01 -6.928897582E+00 5.385115329E+01 -4.956135820E+00
 5.551177711E+01 -2.970200706E+00 5.713724583E+01 -9.934911340E-01 5.876284522E+01
 9.934855881E-01 6.033821900E+01 2.970194971E+00 6.190156327E+01 4.956128941E+00
 6.344661966E+01 6.928889936E+00 6.494494716E+01 8.911347017E+00 6.644422697E+01
 1.087754939E+01 6.789515435E+01 1.285043418E+01 6.932240209E+01 1.480873341E+01
 7.074571310E+01 1.676880972E+01 7.245922916E+01 1.871773064E+01 7.417322070E+01
 2.066117777E+01 7.579605294E+01 2.259635905E+01 7.741551588E+01 2.452204364E+01
 7.894691658E+01 2.643397117E+01 8.046668361E+01 2.834504868E+01 8.190297772E+01
 3.023040021E+01 8.331950123E+01 3.211723508E+01 8.465621406E+01 3.398163818E+01
 8.596613305E+01 3.551945215E+01 8.719897315E+01 3.583485943E+01 8.895855254E+01
 8.839981565E+01 8.952544483E+01 3.768046361E+01 9.061410656E+01 3.949806964E+01
 9.162904258E+01 4.132367181E+01 9.260405346E+01 4.310198396E+01 9.350436542E+01
 4.487652682E+01 9.436433835E+01 4.664058812E+01 9.514642677E+01 4.836907976E+01
 9.589065773E+01 5.009782235E+01 9.655154314E+01 5.178957053E+01 9.717930698E+01
 5.346556451E+01 9.771608974E+01 5.513319973E+01 9.800879837E+01 5.675363737E+01
 9.829935998E+01 5.837321001E+01 9.852593648E+01 5.995786579E+01 9.875258577E+01
 6.151589876E+01 9.897918168E+01 6.307134946E+01 9.915662949E+01 6.456483088E+01
 9.931750372E+01 6.605879805E+01 9.947853574E+01 6.752247574E+01 9.960576768E+01
 6.894494651E+01 7.205120393E+01 7.036664822E+01 9.970175612E+01 7.371982128E+01
 9.979765382E+01 7.532541462E+01 9.987179982E+01 7.690148997E+01 9.990360606E+01
 7.842449004E+01 9.993544238E+01 7.990382319E+01 9.995334046E+01 8.134057623E+01
 9.992153144E+01 8.271946064E+01 9.988969649E+01 8.406629810E+01 9.985171559E+01
 8.534144639E+01 9.975568372E+01 8.659468276E+01 9.965979636E+01 8.818364215E+01
 8.776328905E+01 9.956377801E+01 8.891920998E+01 9.940809382E+01 8.997898232E+01
 9.924705975E+01 9.103391759E+01 9.908613941E+01 9.198304732E+01 9.887982798E+01
 9.293201085E+01 9.865321962E+01 9.377050691E+01 9.842649665E+01 9.460763270E+01
 9.817301599E+01 9.533697634E+01 9.788012477E+01 9.606125155E+01 9.758736121E+01
 9.667868785E+01 9.728970090E+01
 -1.480000000E+00 -1.480000000E+00 -1.480000000E+00 -1.480000000E+00 -1.480000000E+00
 -1.480000000E+00 -1.480000000E+00 -1.480000000E+00 -1.480000000E+00 -1.480000000E+00
 -1.480000000E+00 -1.480000000E+00 -1.480000000E+00 -1.480000000E+00 -1.480000000E+00
 -1.480000000E+00 -1.480000000E+00 -1.480000000E+00 -1.480000000E+00 -1.480000000E+00
 -1.480000000E+00 -1.480000000E+00 -1.480000000E+00 -1.480000000E+00 -1.480000000E+00
 -1.480000000E+00 -1.480000000E+00 -1.480000000E+00 -1.480000000E+00 -1.480000000E+00
 -1.480000000E+00 -1.480000000E+00 -1.480000000E+00 -1.480000000E+00 -1.480000000E+00
 -1.480000000E+00 -1.480000000E+00 -1.480000000E+00 -1.480000000E+00 -1.480000000E+00
 -1.480000000E+00 -1.480000000E+00 -1.480000000E+00 -1.480000000E+00 -1.480000000E+00
 -1.480000000E+00 -1.480000000E+00 -1.480000000E+00 -1.480000000E+00 -1.480000000E+00
 -1.480000000E+00 -1.480000000E+00 -1.480000000E+00 -1.480000000E+00 -1.480000000E+00
 -1.480000000E+00 -1.480000000E+00 -1.480000000E+00 -1.480000000E+00 -1.480000000E+00
 -1.480000000E+00 -1.480000000E+00 -1.480000000E+00 -1.480000000E+00 -1.480000000E+00
 -1.480000000E+00 -1.480000000E+00 -1.480000000E+00 -1.480000000E+00 -1.480000000E+00
 -1.480000000E+00 -1.480000000E+00 -1.480000000E+00 -1.480000000E+00 -1.480000000E+00
 -1.480000000E+00 -1.480000000E+00 -1.480000000E+00 -1.480000000E+00 -1.480000000E+00
 -1.480000000E+00 -1.480000000E+00 -1.480000000E+00 -1.480000000E+00 -1.480000000E+00
 -1.480000000E+00 -1.480000000E+00 -1.480000000E+00 -1.480000000E+00 -1.480000000E+00
 -1.480000000E+00 -1.480000000E+00 -1.480000000E+00 -1.480000000E+00 -1.480000000E+00
 -1.480000000E+00 -1.480000000E+00 -1.480000000E+00 -1.480000000E+00 -1.480000000E+00
 -1.480000000E+00 -1.480000000E+00 -1.480000000E+00 -1.480000000E+00 -1.480000000E+00
 -1.480000000E+00 -1.480000000E+00 -1.480000000E+00 -1.480000000E+00 -1.480000000E+00
 -1.480000000E+00 -1.480000000E+00 -1.480000000E+00 -1.480000000E+00 -1.480000000E+00
 -1.480000000E+00 -1.480000000E+00 -1.480000000E+00 -1.480000000E+00 -1.480000000E+00
 -1.480000000E+00 -1.480000000E+00 -1.480000000E+00 -1.480000000E+00 -1.480000000E+00
 -1.480000000E+00 -1.480000000E+00 -1.480000000E+00 -1.480000000E+00 -1.480000000E+00
 -1.480000000E+00 -1.480000000E+00 -1.480000000E+00 -1.480000000E+00 -1.480000000E+00
 -1.480000000E+00 -1.480000000E+00 -1.480000000E+00 -1.480000000E+00 -1.480000000E+00
 -1.480000000E+00 -1.480000000E+00 -1.480000000E+00 -1.480000000E+00 -1.480000000E+00
 -1.480000000E+00 -1.480000000E+00 -1.480000000E+00 -1.480000000E+00 -1.480000000E+00
 -1.480000000E+00 -1.480000000E+00 -1.480000000E+00 -1.480000000E+00 -1.480000000E+00
 -1.480000000E+00 -1.480000000E+00 -1.480000000E+00 -1.480000000E+00 -1.480000000E+00
 -1.480000000E+00 -1.480000000E+00 -1.480000000E+00 -1.480000000E+00 -1.480000000E+00
 -1.480000000E+00 -1.480000000E+00 -1.480000000E+00 -1.480000000E+00 -1.480000000E+00
 -1.480000000E+00 -1.480000000E+00 -1.480000000E+00 -1.480000000E+00 -1.480000000E+00
 -1.480000000E+00 -1.480000000E+00 -1.480000000E+00 -1.480000000E+00 -1.480000000E+00
 -1.480000000E+00 -1.480000000E+00 -1.480000000E+00 -1.480000000E+00 -1.480000000E+00
 -1.480000000E+00 -1.480000000E+00 -1.480000000E+00 -1.480000000E+00 -1.480000000E+00
 -1.480000000E+00 -1.480000000E+00 -1.480000000E+00 -1.480000000E+00 -1.480000000E+00
 -1.480000000E+00 -1.480000000E+00 -1.480000000E+00 -1.480000000E+00 -1.480000000E+00
 -1.480000000E+00 -1.480000000E+00 -1.480000000E+00 -1.480000000E+00 -1.480000000E+00
 -1.480000000E+00 -1.480000000E+00 -1.480000000E+00 -1.480000000E+00 -1.480000000E+00
 -1.480000000E+00 -1.480000000E+00 -1.480000000E+00 -1.480000000E+00 -1.480000000E+00
 -1.480000000E+00 -1.480000000E+00 -1.480000000E+00 -1.480000000E+00 -1.480000000E+00
 -1.480000000E+00 -1.480000000E+00 -1.480000000E+00 -1.480000000E+00 -1.480000000E+00
 -1.480000000E+00 -1.480000000E+00 -1.480000000E+00 -1.480000000E+00 -1.480000000E+00
 -1.480000000E+00 -1.480000000E+00 -1.480000000E+00 -1.480000000E+00 -1.480000000E+00
 -1.480000000E+00 -1.480000000E+00 -1.480000000E+00 -1.480000000E+00 -1.480000000E+00
 -1.480000000E+00 -1.480000000E+00 -1.480000000E+00 -1.480000000E+00 -1.480000000E+00
 -1.480000000E+00 -1.480000000E+00 -1.480000000E+00 -1.480000000E+00 -1.480000000E+00
 -1.480000000E+00 -1.480000000E+00 -1.480000000E+00 -1.480000000E+00 -1.480000000E+00
 -1.480000000E+00 -1.480000000E+00 -1.480000000E+00 -1.480000000E+00 -1.480000000E+00
 -1.480000000E+00 -1.480000000E+00 -1.480000000E+00 -1.480000000E+00 -1.480000000E+00
 -1.480000000E+00 -1.480000000E+00 -1.480000000E+00 -1.480000000E+00 -1.480000000E+00
 -1.480000000E+00 -1.480000000E+00 -1.480000000E+00 -1.480000000E+00 -1.480000000E+00
 -1.480000000E+00 -1.480000000E+00 -1.480000000E+00 -1.480000000E+00 -1.480000000E+00
 -1.480000000E+00 -1.480000000E+00 -1.480000000E+00 -1.480000000E+00 -1.480000000E+00
 -1.480000000E+00 -1.480000000E+00 -1.480000000E+00 -1.480000000E+00 -1.480000000E+00
 -1.480000000E+00 -1.480000000E+00 -1.480000000E+00 -1.480000000E+00 -1.480000000E+00
 -1.480000000E+00 -1.480000000E+00 -1.480000000E+00 -1.480000000E+00 -1.480000000E+00
 -1.480000000E+00 -1.480000000E+00 -1.480000000E+00 -1.480000000E+00 -1.480000000E+00
 -1.480000000E+00 -1.480000000E+00 -1.480000000E+00 -1.480000000E+00 -1.480000000E+00
 -1.480000000E+00 -1.480000000E+00 -1.480000000E+00 -1.480000000E+00 -1.480000000E+00
 -1.480000000E+00 -1.480000000E+00 -1.480000000E+00 -1.480000000E+00 -1.480000000E+00
 -1.480000000E+00 -1.480000000E+00 -1.480000000E+00 -1.480000000E+00 -1.480000000E+00
 -1.480000000E+00 -1.480000000E+00 -1.480000000E+00 -1.480000000E+00 -1.480000000E+00
 -1.480000000E+00 -1.480000000E+00 -1.480000000E+00 -1.480000000E+00 -1.480000000E+00
 -1.480000000E+00 -1.480000000E+00 -1.480000000E+00 -1.480000000E+00 -1.480000000E+00
 -1.480000000E+00 -1.480000000E+00 -1.480000000E+00 -1.480000000E+00 -1.480000000E+00
 -1.480000000E+00 -1.480000000E+00 -1.480000000E+00 -1.480000000E+00 -1.480000000E+00
 -1.480000000E+00 -1.480000000E+00 -1.480000000E+00 -1.480000000E+00 -1.480000000E+00
 -1.480000000E+00 -1.480000000E+00 -1.480000000E+00 -1.480000000E+00 -1.480000000E+00
 -1.480000000E+00 -1.480000000E+00 -1.480000000E+00 -1.480000000E+00 -1.480000000E+00
 -1.480000000E+00 -1.480000000E+00 -1.480000000E+00 -1.480000000E+00 -1.480000000E+00
 -1.480000000E+00 -1.480000000E+00 -1.480000000E+00 -1.480000000E+00 -1.480000000E+00
 -1.480000000E+00 -1.480000000E+00 -1.480000000E+00 -1.480000000E+00 -1.480000000E+00
 -1.480000000E+00 -1.480000000E+00 -1.480000000E+00 -1.480000000E+00 -1.480000000E+00
 -1.480000000E+00 -1.480000000E+00 -1.480000000E+00 -1.480000000E+00 -1.480000000E+00
 -1.480000000E+00 -1.480000000E+00 -1.480000000E+00 -1.480000000E+00 -1.480000000E+00
 -1.480000000E+00 -1.480000000E+00 -1.480000000E+00 -1.480000000E+00 -1.480000000E+00
 -1.480000000E+00 -1.480000000E+00 -1.480000000E+00 -1.480000000E+00 -1.480000000E+00
 -1.480000000E+00 -1.480000000E+00 -1.480000000E+00 -1.480000000E+00 -1.480000000E+00
 -1.480000000E+00 -1.480000000E+00 -1.480000000E+00 -1.480000000E+00 -1.480000000E+00
 -1.480000000E+00 -1.480000000E+00 -1.480000000E+00 -1.480000000E+00 -1.480000000E+00
 -1.480000000E+00 -1.480000000E+00 -1.480000000E+00 -1.480000000E+00 -1.480000000E+00
 -1.480000000E+00 -1.480000000E+00 -1.480000000E+00 -1.480000000E+00 -1.480000000E+00
 -1.480000000E+00 -1.480000000E+00 -1.480000000E+00 -1.480000000E+00 -1.480000000E+00
 -1.480000000E+00 -1.480000000E+00 -1.480000000E+00 -1.480000000E+00 -1.480000000E+00
 -1.480000000E+00 -1.480000000E+00 -1.480000000E+00 -1.480000000E+00 -1.480000000E+00
 -1.480000000E+00 -1.480000000E+00 -1.480000000E+00 -1.480000000E+00 -1.480000000E+00
 -1.480000000E+00 -1.480000000E+00 -1.480000000E+00 -1.480000000E+00 -1.480000000E+00
 -1.480000000E+00 -1.480000000E+00 -1.480000000E+00 -1.480000000E+00 -1.480000000E+00
 -1.480000000E+00 -1.480000000E+00 -1.480000000E+00 -1.480000000E+00 -1.480000000E+00
 -1.480000000E+00 -1.480000000E+00 -1.480000000E+00 -1.480000000E+00 -1.480000000E+00
 -1.480000000E+00 -1.480000000E+00 -1.480000000E+00 -1.480000000E+00 -1.480000000E+00
 -1.480000000E+00 -1.480000000E+00 -1.480000000E+00 -1.480000000E+00 -1.480000000E+00
 -1.480000000E+00 -1.480000000E+00 -1.480000000E+00 -1.480000000E+00 -1.480000000E+00
 -1.480000000E+00 -1.480000000E+00 -1.480000000E+00 -1.480000000E+00 -1.480000000E+00
 -1.480000000E+00 -1.480000000E+00 -1.480000000E+00 -1.480000000E+00 -1.480000000E+00
 -1.480000000E+00 -1.480000000E+00 -1.480000000E+00 -1.480000000E+00 -1.480000000E+00
 -1.480000000E+00 -1.480000000E+00 -1.480000000E+00 -1.480000000E+00 -1.480000000E+00
 -1.480000000E+00 -1.480000000E+00 -1.480000000E+00 -1.480000000E+00 -1.480000000E+00
 -1.480000000E+00 -1.480000000E+00 -1.480000000E+00 -1.480000000E+00 -1.480000000E+00
 -1.480000000E+00 -1.480000000E+00 -1.480000000E+00 -1.480000000E+00 -1.480000000E+00
 -1.480000000E+00 -1.480000000E+00 -1.480000000E+00 -1.480000000E+00 -1.480000000E+00
 -1.480000000E+00 -1.480000000E+00 -1.480000000E+00 -1.480000000E+00 -1.480000000E+00
 -1.480000000E+00 -1.480000000E+00 -1.480000000E+00 -1.480000000E+00 -1.480000000E+00
 -1.480000000E+00 -1.480000000E+00 -1.480000000E+00 -1.480000000E+00 -1.480000000E+00
 -1.480000000E+00 -1.480000000E+00
 7.826751348E-02 7.823965774E-02 7.854886859E-02 7.821180437E-02 7.875871681E-02
 7.818394653E-02 7.893817830E-02 7.815608326E-02 7.909532528E-02 7.812818400E-02
 7.923911824E-02 7.810024660E-02 7.938073284E-02 7.807230341E-02 7.951109729E-02
 7.804435444E-02 7.961742223E-02 7.801639972E-02 7.972151613E-02 7.798843926E-02
 7.992224157E-02 7.983586387E-02 7.981081930E-02 7.796047307E-02 8.003483543E-02
 7.793250719E-02 8.010924102E-02 7.790454903E-02 8.018173007E-02 7.787661235E-02
 8.023807756E-02 7.784867026E-02 8.028149973E-02 7.782072279E-02 8.032865326E-02
 7.779276995E-02 8.036883038E-02 7.776481174E-02 8.040884049E-02 7.773684760E-02
 8.041903991E-02 7.770887694E-02 8.040411423E-02 7.768090089E-02 8.038673973E-02
 7.765291948E-02 8.037465849E-02 7.762493271E-02 8.035947780E-02 7.759692221E-02
 8.034567805E-02 7.756884872E-02 8.033134838E-02 7.754076953E-02 8.031633997E-02
 7.751268467E-02 8.026342220E-02 7.748459415E-02 8.020604672E-02 7.745649800E-02
 8.017246819E-02 7.742839504E-02 8.014655652E-02 7.740017171E-02 8.011319916E-02
 7.756698277E-02 8.007197059E-02 7.769473682E-02 8.002934039E-02 7.779612317E-02
 7.998598436E-02 7.786785249E-02 7.993699064E-02 7.787924914E-02 7.988609613E-02
 7.788834646E-02 7.984230450E-02 7.781708670E-02 7.979880497E-02 7.773572707E-02
 7.975390141E-02 7.762748883E-02 7.970726840E-02 7.745311132E-02 7.965844307E-02
 7.725897490E-02 7.955736294E-02 7.701189100E-02 7.945076258E-02 7.671946871E-02
 7.936885628E-02 7.639357186E-02 7.929086494E-02 7.601555696E-02 7.920057510E-02
 7.561934386E-02 7.910165896E-02 7.517789104E-02 7.899743380E-02 7.473074295E-02
 7.888240248E-02 7.425209092E-02 7.876676541E-02 7.377374113E-02 7.863410337E-02
 7.328160162E-02 7.850079043E-02 7.278784812E-02 7.835577367E-02 7.229331095E-02
 7.819940791E-02 7.179810554E-02 7.803301447E-02 7.130060834E-02 7.785368844E-02
 7.081380438E-02 7.767018327E-02 7.032730172E-02 7.746264902E-02 6.984830201E-02
 7.725387786E-02 6.938958404E-02 7.702421393E-02 6.892851049E-02 7.679247007E-02
 6.849453034E-02 7.654580321E-02 6.807221050E-02 7.629372193E-02 6.767933712E-02
 7.602260198E-02 6.729510730E-02 7.574372992E-02 6.694950261E-02 7.544473992E-02
 6.660933969E-02 7.513372549E-02 6.629462506E-02 7.480706249E-02 6.601059980E-02
 7.446507449E-02 6.573055450E-02 7.410874854E-02 6.549614475E-02 7.372971638E-02
 6.526698006E-02 7.334783316E-02 6.507216154E-02 7.294513053E-02 6.489418598E-02
 7.269556150E-02 6.473377214E-02 7.255632909E-02 6.460424754E-02 7.219667046E-02
 6.447516784E-02 7.183579983E-02 6.438015050E-02 7.142712582E-02 6.429517033E-02
 7.097193613E-02 6.421745797E-02 7.082414899E-02 6.417127510E-02 7.066960474E-02
 6.412417457E-02 7.050681945E-02 6.408035828E-02 7.033441547E-02 6.405637418E-02
 7.015149325E-02 6.403510331E-02 6.995756870E-02 6.401910453E-02 6.975140906E-02
 6.400731819E-02 6.953005376E-02 6.400113536E-02 6.929010027E-02 6.399534248E-02
 6.903139199E-02 6.398962794E-02 6.875323781E-02 6.398437002E-02 6.844752783E-02
 6.397905929E-02 6.810568073E-02 6.396969938E-02 6.776157195E-02 6.396126093E-02
 6.742196823E-02 6.394759252E-02 6.705767784E-02 6.393365893E-02 6.664901971E-02
 6.391947440E-02 6.623884851E-02 6.390065793E-02 6.586169088E-02 6.388303190E-02
 6.552912492E-02 6.386479311E-02 6.529326076E-02 6.384757056E-02 6.508833600E-02
 6.383382256E-02 6.489432856E-02 6.382575876E-02 6.476033161E-02 6.382415354E-02
 6.465006975E-02 6.383084871E-02 6.452915678E-02 6.385241404E-02 6.441639805E-02
 6.389006601E-02 6.433016841E-02 6.394792870E-02 6.426256945E-02 6.404298800E-02
 6.419803023E-02 6.413508724E-02 -7.098264417E+01 -7.233701226E+01 -7.369212275E+01
 -6.917357242E+01 -7.500380898E+01 -6.734840411E+01 -7.628636774E+01 -6.545512737E+01
 -7.756855261E+01 -6.354149495E+01 -7.877455253E+01 -6.156848226E+01 -7.997816665E+01
 -5.957273264E+01 -8.115686446E+01 -5.752405927E+01 -8.227976244E+01 -5.545150896E+01
 -8.340336036E+01 -5.333249667E+01 -8.446620463E+01 -5.118904259E+01 -8.550527429E+01
 -4.900528554E+01 -8.653277395E+01 -4.568437579E+01 -4.679630352E+01 -4.455208664E+01
 -8.748607236E+01 -4.228513359E+01 -8.843939367E+01 -3.998525964E+01 -8.934117219E+01
 -3.766594505E+01 -9.020570006E+01 -3.531659543E+01 -9.106307690E+01 -3.295128727E+01
 -9.184152545E+01 -3.055890196E+01 -9.334234210E+01 -9.328992874E+01 -9.261679036E+01
 -2.815342487E+01 -9.402587794E+01 -2.572364018E+01 -9.470409438E+01 -2.328535523E+01
 -9.529618840E+01 -2.082480635E+01 -9.588804158E+01 -1.943367793E+01 -9.642360537E+01
 -1.804048809E+01 -9.692296109E+01 -1.663683814E+01 -9.740494008E+01 -1.523272486E+01
 -9.781213594E+01 -1.382892720E+01 -9.822126215E+01 -1.241655889E+01 -9.855255460E+01
 -1.100396507E+01 -9.886902629E+01 -9.589924601E+00 -9.914136200E+01 -8.173055297E+00
 -9.936609666E+01 7.233259172E+01 7.098264385E+01 6.924040711E+01 -6.753042205E+00
 -9.957629406E+01 7.368326976E+01 6.748221470E+01 -5.334289263E+00 -9.971029373E+01
 7.499125379E+01 6.566550568E+01 -3.912264555E+00 -9.984371872E+01 7.626961764E+01
 6.382269405E+01 -2.490484682E+00 -9.989968617E+01 7.754756672E+01 6.193503655E+01
 -1.067431102E+00 -9.994392032E+01 7.875091926E+01 6.001278872E+01 3.564188909E-01
 -9.993225450E+01 7.995055654E+01 5.805776189E+01 1.778355228E+00 -9.988801824E+01
 8.112740991E+01 5.606146320E+01 3.201340189E+00 -9.980852982E+01 8.224663776E+01
 5.404271336E+01 4.623237777E+00 -9.967515821E+01 8.336646275E+01 5.197805287E+01
 6.043862937E+00 -9.953100210E+01 8.442865835E+01 4.989934771E+01 7.462432731E+00
 -9.930711894E+01 8.546427579E+01 4.699235487E+01 4.777220120E+01 4.563749026E+01
 8.882945291E+00 -9.908232321E+01 8.649200354E+01 4.345382622E+01 1.029681305E+01
 -9.878589817E+01 8.744220390E+01 4.126721647E+01 1.171082908E+01 -9.846941724E+01
 8.839226644E+01 3.903310905E+01 1.312383998E+01 -9.811377245E+01 8.929556298E+01
 3.679877304E+01 1.453222351E+01 -9.770489924E+01 9.015720301E+01 3.452053208E+01
 1.593606005E+01 -9.729327652E+01 9.101700252E+01 3.224210703E+01 1.734060716E+01
 -9.679113662E+01 9.179296229E+01 2.992680832E+01 1.874006868E+01 -9.629174730E+01
 9.256552350E+01 2.761025235E+01 2.013203097E+01 -9.573173539E+01 9.397607955E+01
 9.341079370E+01 9.329483702E+01 2.526287846E+01 2.152339881E+01 -9.514006471E+01
 9.465897459E+01 2.291407451E+01 -9.453250182E+01 9.524918866E+01 -9.384535637E+01
 9.583893960E+01 -9.316159165E+01 9.638050712E+01 -9.308788515E+01 9.687818173E+01
 -9.241183490E+01 9.736704963E+01 -9.163677981E+01 9.777297179E+01 -9.084236609E+01
 9.818062812E+01 -8.997692912E+01 9.852006477E+01 -8.911214188E+01 9.883547622E+01
 -8.818673585E+01 9.911677833E+01 -8.723377497E+01 9.934075953E+01 -8.627352033E+01
 9.956072751E+01 -8.522958088E+01 9.969431368E+01 -8.419039726E+01 9.982724977E+01
 -8.310484293E+01 9.989407422E+01 -8.198154099E+01 9.993816030E+01 -8.085814774E+01
 9.993816424E+01 -7.965769710E+01 9.989407915E+01 -7.845397031E+01 9.982725230E+01
 -7.722645356E+01 9.969431937E+01 -7.594435776E+01 9.956072819E+01 -7.466144806E+01
 9.934076001E+01 -7.332940026E+01 9.911677875E+01 -7.197418645E+01 9.883547509E+01
 -7.061617281E+01 9.852006357E+01 -6.881157849E+01 9.818062904E+01 -6.700648276E+01
 9.777297272E+01 -6.511826637E+01 9.736705040E+01 -6.322567168E+01 9.687818171E+01
 -6.126134519E+01 9.638050707E+01 -5.928754262E+01 9.583894118E+01 -5.725092544E+01
 9.524919102E+01 -5.520115370E+01 9.465897554E+01 -5.309730343E+01 9.397608102E+01
 -5.097739275E+01 9.341078164E+01 -4.881160099E+01 9.329483813E+01 -4.552305848E+01
 -4.662685378E+01 -4.440308810E+01 9.256552201E+01 -4.216099506E+01 9.179296016E+01
 -3.988371848E+01 9.101700272E+01 -3.758981068E+01 9.015720375E+01 -3.526487174E+01
 8.929556366E+01 -3.292544066E+01 8.839226660E+01 -3.055892364E+01 8.744220417E+01
 -2.817971789E+01 8.649200373E+01 -2.577689772E+01 8.546427839E+01 -2.336520447E+01
 8.442866088E+01 -2.093235980E+01 8.336646177E+01 -1.953691045E+01 8.224663562E+01
 -1.814034853E+01 8.112740901E+01 -1.673231347E+01 7.995055547E+01 -1.532383638E+01
 7.875091821E+01 -1.391569101E+01 7.754756693E+01 -1.249941851E+01 7.626961881E+01
 -1.108239681E+01 7.499125473E+01 -9.663985204E+00 7.368327018E+01 -8.242988832E+00
 7.233259230E+01 6.924129088E+01 7.098264420E+01 -6.818526582E+00 6.748398146E+01
 -5.395378460E+00 6.566827863E+01 -3.969058820E+00 6.382638956E+01 -2.542816700E+00
 6.193985087E+01 -1.115356171E+00 6.001856182E+01 3.129063210E-01 5.806474998E+01
 1.739303290E+00 5.606944359E+01 3.166702521E+00 5.405198949E+01 4.593078764E+00
 5.198835000E+01 6.018149541E+00 4.991101367E+01 7.441144142E+00 4.700916893E+01
 4.778491527E+01 8.866082706E+00 4.565162372E+01 1.028445602E+01 4.346902822E+01
 1.170288561E+01 4.128387655E+01 1.312031346E+01 3.905085933E+01 1.453311715E+01
 3.681765923E+01 1.594134274E+01 3.454086947E+01 1.735027769E+01 3.226359359E+01
 1.875402525E+01 2.994975807E+01 2.015034559E+01 2.763435209E+01 2.154605681E+01
 2.528844699E+01 2.294084962E+01
 -1.633952919E+01 -7.563870661E+00 -2.943965301E+01 -5.014412907E+00 -3.984058114E+01
 -3.763710370E+00 -4.714292170E+01 -3.367745981E+00 -5.253049158E+01 -3.083579028E+00
 -5.901367435E+01 -2.567704898E+00 -6.562923462E+01 -1.734619133E+00 -6.952307945E+01
 -1.001486848E+00 -7.293146616E+01 -8.365276592E-01 -7.646389385E+01 -1.669558845E+00
 -8.588057277E+01 -8.214594250E+01 -8.056732677E+01 -1.969568363E+00 -8.670275855E+01
 -1.455982879E+00 -8.638217306E+01 -1.184068240E+00 -8.633875080E+01 -1.341488616E+00
 -8.374569784E+01 -1.287072196E+00 -8.242481877E+01 -8.301943629E-01 -8.301848170E+01
 -1.298009033E+00 -8.616505181E+01 -1.818816667E+00 -8.647340554E+01 -1.751666513E+00
 -7.967256781E+01 -1.759919785E+00 -7.193408662E+01 -1.922712995E+00 -6.702827205E+01
 -2.305855902E+00 -6.336867781E+01 -2.478476736E+00 -6.046522635E+01 -2.586383271E+00
 -5.933333289E+01 -3.011386879E+00 -5.910032955E+01 -3.237484147E+00 -5.355340210E+01
 -3.359551166E+00 -4.286577957E+01 -3.594096205E+00 -3.683985268E+01 -5.855676495E+00
 -3.561458846E+01 -1.037744433E+01 -3.388491721E+01 3.402943633E+00 -3.056568124E+01
 1.367357123E+01 -2.686057251E+01 4.402278884E+00 -2.329623905E+01 -1.390983137E+00
 -1.949626501E+01 -5.462274010E+00 -1.510083981E+01 -9.131359750E+00 -1.189192774E+01
 -1.237141265E+01 -1.028180275E+01 -1.515862780E+01 -8.865673930E+00 -1.856427776E+01
 -8.643898945E+00 -2.113003123E+01 -9.863832215E+00 -2.349804884E+01 -4.273255448E+00
 -2.616345636E+01 8.024670436E+00 -2.785294932E+01 1.516331495E+01 -2.876503812E+01
 1.709799497E+01 -2.934911979E+01 2.000317620E+01 -2.952590040E+01 2.480800032E+01
 -2.951409066E+01 3.010325132E+01 -2.953205192E+01 3.580006979E+01 -2.964721574E+01
 4.132225322E+01 -3.002257921E+01 4.806625795E+01 -3.066556466E+01 5.550180539E+01
 -3.163169591E+01 6.274537839E+01 -3.302653388E+01 7.109993812E+01 -3.494058206E+01
 8.001454864E+01 -3.742197510E+01 8.943546579E+01 -4.094685369E+01 9.868204964E+01
 -4.571615396E+01 1.095744755E+02 -5.157123136E+01 1.211325479E+02 -5.838617870E+01
 1.328871581E+02 -6.634314129E+01 1.450997944E+02 -7.552870974E+01 1.569670018E+02