TITLE     = "Fluent Common Fluid Files Data"
VARIABLES = "X"
"Y"
"Z"
"Static Pressure"
DATASETAUXDATA Common.DensityVar="7"
DATASETAUXDATA Common.PressureVar="15"
DATASETAUXDATA Common.TemperatureVar="17"
DATASETAUXDATA Common.TurbulentDynamicViscosityVar="12"
DATASETAUXDATA Common.TurbulentKineticEnergyVar="10"
DATASETAUXDATA Common.UVar="18"
DATASETAUXDATA Common.VectorVarsAreVelocity="True"
DATASETAUXDATA Common.ViscosityVar="11"
DATASETAUXDATA Common.VVar="19"
DATASETAUXDATA Common.WVar="20"
ZONE T="Slice: Z=0.1 (region 2)"
 STRANDID=7, SOLUTIONTIME=0
 I=223, J=1, K=1, ZONETYPE=Ordered
 DATAPACKING=BLOCK
 DT=(DOUBLE DOUBLE DOUBLE DOUBLE )
 2.559605255E+00 2.559597014E+00 2.559588715E+00 2.559580404E+00 2.559572082E+00
 2.559563747E+00 2.559555401E+00 2.559547043E+00 2.559538673E+00 2.559530291E+00
 2.559521862E+00 2.559513370E+00 2.559504861E+00 2.559496338E+00 2.559487630E+00
 2.559476965E+00 2.559466286E+00 2.559455594E+00 2.559444888E+00 2.559434168E+00
 2.559423434E+00 2.559412686E+00 2.559401925E+00 2.559391149E+00 2.559380358E+00
 2.559369553E+00 2.559358734E+00 2.559347900E+00 2.559337053E+00 2.559326192E+00
 2.559315316E+00 2.559303055E+00 2.557579427E+00 2.555821620E+00 2.554079477E+00
 2.552335100E+00 2.550593446E+00 2.548853066E+00 2.547115790E+00 2.545380748E+00
 2.543647168E+00 2.541916399E+00 2.540186108E+00 2.538460589E+00 2.536736683E+00
 2.535014303E+00 2.533294404E+00 2.531577402E+00 2.529863294E+00 2.528148800E+00
 2.526436767E+00 2.524725806E+00 2.523017035E+00 2.521308524E+00 2.519598705E+00
 2.517888813E+00 2.516179089E+00 2.514469816E+00 2.512760798E+00 2.511051564E+00
 2.509341298E+00 2.507629510E+00 2.505917953E+00 2.504208663E+00 2.502497853E+00
 2.500784526E+00 2.499070408E+00 2.497357425E+00 2.495648669E+00 2.493937192E+00
 2.492221007E+00 2.490504985E+00 2.488794671E+00 2.487090178E+00 2.485381372E+00
 2.483671517E+00 2.483666188E+00 2.481947734E+00 2.480237352E+00 2.478530502E+00
 2.476823133E+00 2.475121183E+00 2.473411001E+00 2.471699213E+00 2.469986543E+00
 2.468272207E+00 2.466570051E+00 2.464878384E+00 2.463189110E+00 2.461486994E+00
 2.459788807E+00 2.458089653E+00 2.456393033E+00 2.454699843E+00 2.453005516E+00
 2.451321606E+00 2.449628853E+00 2.447948503E+00 2.446263181E+00 2.444574914E+00
 2.442887716E+00 2.441199906E+00 2.439520423E+00 2.437852319E+00 2.436177578E+00
 2.434494005E+00 2.432811409E+00 2.431142629E+00 2.429493608E+00 2.427839686E+00
 2.426203699E+00 2.424584659E+00 2.423960659E+00 2.423332097E+00 2.422705080E+00
 2.422087567E+00 2.421495754E+00 2.420919435E+00 2.420348749E+00 2.419792536E+00
 2.419281504E+00 2.418814029E+00 2.418384430E+00 2.418023156E+00 2.417744834E+00
 2.417516751E+00 2.417448011E+00 2.417695354E+00 2.417955250E+00 2.418244913E+00
 2.418740953E+00 2.419250175E+00 2.419730892E+00 2.420319169E+00 2.420951202E+00
 2.421553622E+00 2.422132616E+00 2.422733711E+00 2.423375524E+00 2.424053191E+00
 2.424752804E+00 2.425460998E+00 2.426169539E+00 2.427786633E+00 2.429404889E+00
 2.431053025E+00 2.432715676E+00 2.434386314E+00 2.436073579E+00 2.437758781E+00
 2.439453335E+00 2.441157014E+00 2.442859854E+00 2.444573363E+00 2.446287654E+00
 2.448005462E+00 2.449726927E+00 2.451453076E+00 2.453182762E+00 2.454909454E+00
 2.456641804E+00 2.458373924E+00 2.460108835E+00 2.461841900E+00 2.463576557E+00
 2.465312926E+00 2.467050986E+00 2.468785515E+00 2.470524667E+00 2.472258226E+00
 2.473987046E+00 2.475718253E+00 2.477447528E+00 2.479171110E+00 2.480897378E+00
 2.482616845E+00 2.484337353E+00 2.486057496E+00 2.487767527E+00 2.489478233E+00
 2.491179488E+00 2.492881001E+00 2.494577079E+00 2.496267478E+00 2.497956658E+00
 2.499635407E+00 2.501313137E+00 2.502985468E+00 2.504650094E+00 2.506308957E+00
 2.507961070E+00 2.509609974E+00 2.511251273E+00 2.512889677E+00 2.514523094E+00
 2.516148882E+00 2.517772845E+00 2.519396064E+00 2.521011028E+00 2.522623902E+00
 2.524234676E+00 2.525844544E+00 2.527452570E+00 2.529059201E+00 2.529198527E+00
 2.530663465E+00 2.532272273E+00 2.533903265E+00 2.535532877E+00 2.537174411E+00
 2.538826372E+00 2.540487035E+00 2.542160644E+00 2.543849255E+00 2.545553734E+00
 2.547271167E+00 2.548994104E+00 2.550736704E+00 2.552485974E+00 2.554250360E+00
 2.556033100E+00 2.557810291E+00 2.559605255E+00
 1.501281756E+00 1.501215362E+00 1.501148994E+00 1.501082649E+00 1.501016326E+00
 1.500950025E+00 1.500883748E+00 1.500817492E+00 1.500751260E+00 1.500685050E+00
 1.500618862E+00 1.500552698E+00 1.500486556E+00 1.500420438E+00 1.500354319E+00
 1.500287960E+00 1.500221626E+00 1.500155318E+00 1.500089035E+00 1.500022778E+00
 1.499956547E+00 1.499890341E+00 1.499824161E+00 1.499758007E+00 1.499691879E+00
 1.499625777E+00 1.499559700E+00 1.499493650E+00 1.499427626E+00 1.499361627E+00
 1.499295655E+00 1.499229547E+00 1.498814974E+00 1.498547142E+00 1.498273075E+00
 1.498017608E+00 1.497767185E+00 1.497519814E+00 1.497280923E+00 1.497055694E+00
 1.496831299E+00 1.496609928E+00 1.496390044E+00 1.496184383E+00 1.495990150E+00
 1.495802538E+00 1.495619629E+00 1.495440630E+00 1.495266770E+00 1.495085731E+00
 1.494917464E+00 1.494763363E+00 1.494629201E+00 1.494491645E+00 1.494358131E+00
 1.494229262E+00 1.494101364E+00 1.493977796E+00 1.493862627E+00 1.493769760E+00
 1.493678989E+00 1.493568774E+00 1.493467279E+00 1.493371316E+00 1.493277578E+00
 1.493196727E+00 1.493112934E+00 1.493039832E+00 1.492964149E+00 1.492885097E+00
 1.492812355E+00 1.492737337E+00 1.492671405E+00 1.492627418E+00 1.492610256E+00
 1.492579345E+00 1.492579223E+00 1.492532984E+00 1.492489776E+00 1.492461203E+00
 1.492432225E+00 1.492413140E+00 1.492394340E+00 1.492389818E+00 1.492391358E+00
 1.492396322E+00 1.492406584E+00 1.492420317E+00 1.492451805E+00 1.492485933E+00
 1.492543338E+00 1.492606829E+00 1.492679972E+00 1.492759810E+00 1.492847881E+00
 1.492944848E+00 1.493054099E+00 1.493177583E+00 1.493315283E+00 1.493476109E+00
 1.493640294E+00 1.493835354E+00 1.494032110E+00 1.494259767E+00 1.494501175E+00
 1.494774417E+00 1.495072066E+00 1.495392952E+00 1.495761691E+00 1.496203559E+00
 1.496697682E+00 1.497255268E+00 1.497505294E+00 1.497747990E+00 1.498004483E+00
 1.498297427E+00 1.498631994E+00 1.498978110E+00 1.499340435E+00 1.499751535E+00
 1.500220373E+00 1.500719248E+00 1.501251986E+00 1.501839246E+00 1.502476070E+00
 1.503162004E+00 1.503937742E+00 1.504714622E+00 1.505402713E+00 1.506078663E+00
 1.506706584E+00 1.507254822E+00 1.507798510E+00 1.508279031E+00 1.508679812E+00
 1.509096807E+00 1.509536107E+00 1.509949351E+00 1.510306087E+00 1.510611254E+00
 1.510888235E+00 1.511156951E+00 1.511425482E+00 1.511971657E+00 1.512501691E+00
 1.512928705E+00 1.513312065E+00 1.513658244E+00 1.513964513E+00 1.514244365E+00
 1.514489489E+00 1.514708833E+00 1.514898887E+00 1.515055029E+00 1.515202344E+00
 1.515329589E+00 1.515432234E+00 1.515525226E+00 1.515596276E+00 1.515659011E+00
 1.515700219E+00 1.515727987E+00 1.515749222E+00 1.515740265E+00 1.515736629E+00
 1.515723427E+00 1.515713296E+00 1.515663970E+00 1.515624139E+00 1.515550966E+00
 1.515442888E+00 1.515342383E+00 1.515225629E+00 1.515088493E+00 1.514954853E+00
 1.514797347E+00 1.514639170E+00 1.514472134E+00 1.514278762E+00 1.514090518E+00
 1.513875008E+00 1.513655635E+00 1.513417668E+00 1.513165987E+00 1.512912121E+00
 1.512632801E+00 1.512348382E+00 1.512052371E+00 1.511739719E+00 1.511421065E+00
 1.511087389E+00 1.510746546E+00 1.510390456E+00 1.510030432E+00 1.509661711E+00
 1.509278442E+00 1.508893478E+00 1.508509104E+00 1.508108119E+00 1.507703128E+00
 1.507296400E+00 1.506890984E+00 1.506485007E+00 1.506071219E+00 1.506036065E+00
 1.505646926E+00 1.505216764E+00 1.504817408E+00 1.504435827E+00 1.504087170E+00
 1.503761581E+00 1.503458699E+00 1.503163968E+00 1.502880159E+00 1.502622225E+00
 1.502390138E+00 1.502161980E+00 1.501973554E+00 1.501796112E+00 1.501646372E+00
 1.501527665E+00 1.501423597E+00 1.501281756E+00
 1.000000000E-01 1.000000000E-01 1.000000000E-01 1.000000000E-01 1.000000000E-01
 1.000000000E-01 1.000000000E-01 1.000000000E-01 1.000000000E-01 1.000000000E-01
 1.000000000E-01 1.000000000E-01 1.000000000E-01 1.000000000E-01 1.000000000E-01
 1.000000000E-01 1.000000000E-01 1.000000000E-01 1.000000000E-01 1.000000000E-01
 1.000000000E-01 1.000000000E-01 1.000000000E-01 1.000000000E-01 1.000000000E-01
 1.000000000E-01 1.000000000E-01 1.000000000E-01 1.000000000E-01 1.000000000E-01
 1.000000000E-01 1.000000000E-01 1.000000000E-01 1.000000000E-01 1.000000000E-01
 1.000000000E-01 1.000000000E-01 1.000000000E-01 1.000000000E-01 1.000000000E-01
 1.000000000E-01 1.000000000E-01 1.000000000E-01 1.000000000E-01 1.000000000E-01
 1.000000000E-01 1.000000000E-01 1.000000000E-01 1.000000000E-01 1.000000000E-01
 1.000000000E-01 1.000000000E-01 1.000000000E-01 1.000000000E-01 1.000000000E-01
 1.000000000E-01 1.000000000E-01 1.000000000E-01 1.000000000E-01 1.000000000E-01
 1.000000000E-01 1.000000000E-01 1.000000000E-01 1.000000000E-01 1.000000000E-01
 1.000000000E-01 1.000000000E-01 1.000000000E-01 1.000000000E-01 1.000000000E-01
 1.000000000E-01 1.000000000E-01 1.000000000E-01 1.000000000E-01 1.000000000E-01
 1.000000000E-01 1.000000000E-01 1.000000000E-01 1.000000000E-01 1.000000000E-01
 1.000000000E-01 1.000000000E-01 1.000000000E-01 1.000000000E-01 1.000000000E-01
 1.000000000E-01 1.000000000E-01 1.000000000E-01 1.000000000E-01 1.000000000E-01
 1.000000000E-01 1.000000000E-01 1.000000000E-01 1.000000000E-01 1.000000000E-01
 1.000000000E-01 1.000000000E-01 1.000000000E-01 1.000000000E-01 1.000000000E-01
 1.000000000E-01 1.000000000E-01 1.000000000E-01 1.000000000E-01 1.000000000E-01
 1.000000000E-01 1.000000000E-01 1.000000000E-01 1.000000000E-01 1.000000000E-01
 1.000000000E-01 1.000000000E-01 1.000000000E-01 1.000000000E-01 1.000000000E-01
 1.000000000E-01 1.000000000E-01 1.000000000E-01 1.000000000E-01 1.000000000E-01
 1.000000000E-01 1.000000000E-01 1.000000000E-01 1.000000000E-01 1.000000000E-01
 1.000000000E-01 1.000000000E-01 1.000000000E-01 1.000000000E-01 1.000000000E-01
 1.000000000E-01 1.000000000E-01 1.000000000E-01 1.000000000E-01 1.000000000E-01
 1.000000000E-01 1.000000000E-01 1.000000000E-01 1.000000000E-01 1.000000000E-01
 1.000000000E-01 1.000000000E-01 1.000000000E-01 1.000000000E-01 1.000000000E-01
 1.000000000E-01 1.000000000E-01 1.000000000E-01 1.000000000E-01 1.000000000E-01
 1.000000000E-01 1.000000000E-01 1.000000000E-01 1.000000000E-01 1.000000000E-01
 1.000000000E-01 1.000000000E-01 1.000000000E-01 1.000000000E-01 1.000000000E-01
 1.000000000E-01 1.000000000E-01 1.000000000E-01 1.000000000E-01 1.000000000E-01
 1.000000000E-01 1.000000000E-01 1.000000000E-01 1.000000000E-01 1.000000000E-01
 1.000000000E-01 1.000000000E-01 1.000000000E-01 1.000000000E-01 1.000000000E-01
 1.000000000E-01 1.000000000E-01 1.000000000E-01 1.000000000E-01 1.000000000E-01
 1.000000000E-01 1.000000000E-01 1.000000000E-01 1.000000000E-01 1.000000000E-01
 1.000000000E-01 1.000000000E-01 1.000000000E-01 1.000000000E-01 1.000000000E-01
 1.000000000E-01 1.000000000E-01 1.000000000E-01 1.000000000E-01 1.000000000E-01
 1.000000000E-01 1.000000000E-01 1.000000000E-01 1.000000000E-01 1.000000000E-01
 1.000000000E-01 1.000000000E-01 1.000000000E-01 1.000000000E-01 1.000000000E-01
 1.000000000E-01 1.000000000E-01 1.000000000E-01 1.000000000E-01 1.000000000E-01
 1.000000000E-01 1.000000000E-01 1.000000000E-01 1.000000000E-01 1.000000000E-01
 1.000000000E-01 1.000000000E-01 1.000000000E-01 1.000000000E-01 1.000000000E-01
 1.000000000E-01 1.000000000E-01 1.000000000E-01
 2.704631199E+01 2.392617863E+01 2.809740787E+01 2.942766139E+01 2.995049245E+01
 3.021240250E+01 3.058694120E+01 3.083136747E+01 3.097630274E+01 3.141303574E+01
 3.214090527E+01 3.260159044E+01 3.281271358E+01 3.320561013E+01 3.363934889E+01
 3.385120629E+01 3.393424007E+01 3.417711766E+01 3.356074904E+01 3.253129252E+01
 3.197727959E+01 3.124067119E+01 3.048707234E+01 2.962364276E+01 2.889977461E+01
 2.845853387E+01 2.800523163E+01 2.768100401E+01 2.726437277E+01 2.636363166E+01
 2.449519984E+01 1.803439300E+01 1.252472940E+01 6.855764920E+00 -1.397866422E+00
 -7.996268306E+00 -1.583273434E+01 -2.397112371E+01 -3.126172920E+01 -3.830059015E+01
 -4.623450237E+01 -5.475230643E+01 -6.313397750E+01 -7.047465642E+01 -7.747950376E+01
 -8.475977846E+01 -9.208224296E+01 -9.947416564E+01 -1.080877208E+02 -1.177190508E+02
 -1.258586930E+02 -1.314605773E+02 -1.358143002E+02 -1.409861874E+02 -1.455612130E+02
 -1.499004667E+02 -1.553876596E+02 -1.614760265E+02 -1.644375004E+02 -1.627618763E+02
 -1.639518876E+02 -1.685619673E+02 -1.730634224E+02 -1.770857522E+02 -1.793685614E+02
 -1.818616286E+02 -1.847654293E+02 -1.875138428E+02 -1.909795768E+02 -1.945298830E+02
 -1.997370864E+02 -2.079585178E+02 -2.137991663E+02 -2.099941546E+02 -2.043717897E+02
 -2.063799808E+02 -2.063862369E+02 -2.126008463E+02 -2.152500061E+02 -2.158631814E+02
 -2.165950745E+02 -2.159607405E+02 -2.153190551E+02 -2.137286858E+02 -2.142544743E+02
 -2.168540373E+02 -2.191180822E+02 -2.177604608E+02 -2.146193903E+02 -2.114309258E+02
 -2.053588187E+02 -2.007980591E+02 -1.969317338E+02 -1.926610956E+02 -1.887657431E+02
 -1.846564301E+02 -1.809856118E+02 -1.736377790E+02 -1.633889875E+02 -1.553808642E+02
 -1.459338566E+02 -1.387453117E+02 -1.305707281E+02 -1.169350086E+02 -1.013917730E+02
 -8.732636343E+01 -8.010433763E+01 -6.847037437E+01 -3.860456714E+01 -5.964322720E+00
 2.541889617E+01 7.080461623E+01 9.817841332E+01 1.003954628E+02 1.130116302E+02
 1.504092696E+02 1.946314798E+02 2.251212389E+02 2.554047051E+02 3.038715779E+02
 3.623413236E+02 4.167293615E+02 4.707955711E+02 5.244181385E+02 5.626070796E+02
 5.679109766E+02 5.081827966E+02 4.184345763E+02 3.198273365E+02 1.397760673E+02
 4.224784757E+00 -1.805159391E+01 -1.304930086E+02 -2.696957671E+02 -2.411420094E+02
 -1.857373524E+02 -2.594931414E+02 -4.004176281E+02 -4.981537463E+02 -5.084814127E+02
 -4.648442327E+02 -4.190241458E+02 -4.062965115E+02 -4.028929203E+02 -4.132018658E+02
 -4.239343961E+02 -4.054525156E+02 -3.897105724E+02 -3.728964474E+02 -3.613372335E+02
 -3.544354281E+02 -3.421318131E+02 -3.352477144E+02 -3.226849034E+02 -3.104645035E+02
 -3.062419162E+02 -2.987969304E+02 -2.914553798E+02 -2.834738534E+02 -2.790494642E+02
 -2.748646663E+02 -2.678718724E+02 -2.651300725E+02 -2.589581284E+02 -2.535915599E+02
 -2.516972657E+02 -2.541155519E+02 -2.556242119E+02 -2.549194443E+02 -2.574154171E+02
 -2.495264049E+02 -2.398134422E+02 -2.365223372E+02 -2.301102128E+02 -2.247691002E+02
 -2.203262776E+02 -2.152983756E+02 -2.128055158E+02 -2.064883133E+02 -2.000791258E+02
 -1.948945374E+02 -1.884203143E+02 -1.818846010E+02 -1.726932795E+02 -1.648255860E+02
 -1.566198242E+02 -1.470033961E+02 -1.383252763E+02 -1.277130533E+02 -1.166582017E+02
 -1.061543726E+02 -9.544721493E+01 -8.432265356E+01 -7.316761678E+01 -6.259668927E+01
 -5.170134317E+01 -4.109142303E+01 -3.152443543E+01 -2.243953293E+01 -1.339661434E+01
 -5.153616566E+00 1.694615514E+00 7.625840034E+00 1.303835023E+01 1.349267089E+01
 1.808307721E+01 2.300786955E+01 2.699126585E+01 2.998755383E+01 3.200141069E+01
 3.278016523E+01 3.268178409E+01 3.253334463E+01 3.278185132E+01 3.311092161E+01
 3.278780881E+01 3.262580516E+01 3.232164803E+01 3.191822956E+01 3.218080236E+01
 3.310621125E+01 3.370504680E+01 2.704631199E+01
ZONE T="Slice: Z=0.110645 (region 2)"
 STRANDID=7, SOLUTIONTIME=0
 I=221, J=1, K=1, ZONETYPE=Ordered
 DATAPACKING=BLOCK
 DT=(DOUBLE DOUBLE DOUBLE DOUBLE )
 2.566367336E+00 2.566367349E+00 2.566367349E+00 2.566367349E+00 2.566367349E+00
 2.566367349E+00 2.566367349E+00 2.566367349E+00 2.566367349E+00 2.566367349E+00
 2.566367349E+00 2.566367349E+00 2.566367349E+00 2.566367349E+00 2.566367349E+00
 2.566367349E+00 2.566367349E+00 2.566367349E+00 2.566367349E+00 2.566367350E+00
 2.566367350E+00 2.566367350E+00 2.566367350E+00 2.566367350E+00 2.566367350E+00
 2.566367350E+00 2.566367350E+00 2.566367350E+00 2.566367350E+00 2.566367350E+00
 2.566367350E+00 2.566367336E+00 2.564685045E+00 2.562963497E+00 2.561250379E+00
 2.559533624E+00 2.557817090E+00 2.556100555E+00 2.554383976E+00 2.552667375E+00
 2.550950819E+00 2.549234264E+00 2.547517714E+00 2.545801170E+00 2.544084627E+00
 2.542368106E+00 2.540651596E+00 2.538935085E+00 2.537218571E+00 2.535502018E+00
 2.533785512E+00 2.532069047E+00 2.530352581E+00 2.528636116E+00 2.526919225E+00
 2.525201334E+00 2.523483449E+00 2.521765563E+00 2.520047678E+00 2.518328109E+00
 2.516607488E+00 2.514886865E+00 2.513166242E+00 2.511445609E+00 2.509722340E+00
 2.507998822E+00 2.506275303E+00 2.504551784E+00 2.502827618E+00 2.501101323E+00
 2.499375028E+00 2.497648691E+00 2.495922352E+00 2.494194401E+00 2.492465179E+00
 2.490735956E+00 2.489006705E+00 2.487277454E+00 2.485546874E+00 2.483816057E+00
 2.482084351E+00 2.480351930E+00 2.478619456E+00 2.476886704E+00 2.475154133E+00
 2.473421423E+00 2.471688333E+00 2.469955135E+00 2.468222211E+00 2.466489359E+00
 2.464757175E+00 2.463024989E+00 2.461293922E+00 2.459563314E+00 2.457834092E+00
 2.456107229E+00 2.454380849E+00 2.452660103E+00 2.450939459E+00 2.449223687E+00
 2.447509911E+00 2.445799427E+00 2.444096901E+00 2.442404428E+00 2.440722931E+00
 2.439044479E+00 2.437375212E+00 2.435726861E+00 2.434126035E+00 2.432526637E+00
 2.430970803E+00 2.430320046E+00 2.429665905E+00 2.429016842E+00 2.428391498E+00
 2.427799131E+00 2.427220966E+00 2.426646771E+00 2.426101520E+00 2.425614301E+00
 2.425173154E+00 2.424768287E+00 2.424415475E+00 2.424120984E+00 2.423894189E+00
 2.423785535E+00 2.423840283E+00 2.423991711E+00 2.424126609E+00 2.424377379E+00
 2.424748681E+00 2.425097460E+00 2.425535214E+00 2.426078284E+00 2.426623898E+00
 2.427137556E+00 2.427676664E+00 2.428276023E+00 2.428925123E+00 2.429600744E+00
 2.430285740E+00 2.430970803E+00 2.432549704E+00 2.434153880E+00 2.435804177E+00
 2.437473755E+00 2.439157806E+00 2.440858437E+00 2.442559332E+00 2.444275020E+00
 2.445995116E+00 2.447719090E+00 2.449450239E+00 2.451181378E+00 2.452916434E+00
 2.454653290E+00 2.456391648E+00 2.458130876E+00 2.459870159E+00 2.461610193E+00
 2.463350227E+00 2.465090081E+00 2.466829619E+00 2.468569037E+00 2.470307686E+00
 2.472046324E+00 2.473783564E+00 2.475520270E+00 2.477256192E+00 2.478990426E+00
 2.480724637E+00 2.482456874E+00 2.484188892E+00 2.485919795E+00 2.487649485E+00
 2.489378836E+00 2.491104847E+00 2.492830744E+00 2.494556635E+00 2.496282526E+00
 2.498007509E+00 2.499729527E+00 2.501451432E+00 2.503171191E+00 2.504890514E+00
 2.506608492E+00 2.508324301E+00 2.510040075E+00 2.511755849E+00 2.513471621E+00
 2.515185669E+00 2.516898366E+00 2.518610512E+00 2.520320451E+00 2.522030393E+00
 2.523738434E+00 2.525445688E+00 2.527152737E+00 2.528859445E+00 2.530566170E+00
 2.532273213E+00 2.533977758E+00 2.535679168E+00 2.537378437E+00 2.539078129E+00
 2.540783007E+00 2.542492363E+00 2.544203230E+00 2.545914432E+00 2.547624752E+00
 2.549331445E+00 2.551037382E+00 2.552743309E+00 2.554449277E+00 2.556155495E+00
 2.557862010E+00 2.559567753E+00 2.561274182E+00 2.562978589E+00 2.564688336E+00
 2.566367336E+00
 1.504743454E+00 1.504662721E+00 1.504581988E+00 1.504501256E+00 1.504420523E+00
 1.504339791E+00 1.504259058E+00 1.504178326E+00 1.504097593E+00 1.504016861E+00
 1.503936128E+00 1.503855396E+00 1.503774663E+00 1.503693931E+00 1.503613198E+00
 1.503532466E+00 1.503451734E+00 1.503371001E+00 1.503290269E+00 1.503209536E+00
 1.503128804E+00 1.503048071E+00 1.502967339E+00 1.502886606E+00 1.502805874E+00
 1.502725141E+00 1.502644409E+00 1.502563676E+00 1.502482944E+00 1.502402211E+00
 1.502321479E+00 1.502240746E+00 1.501824920E+00 1.501603280E+00 1.501355493E+00
 1.501117087E+00 1.500877151E+00 1.500637219E+00 1.500397567E+00 1.500158066E+00
 1.499918284E+00 1.499678501E+00 1.499438678E+00 1.499198812E+00 1.498958942E+00
 1.498718914E+00 1.498478810E+00 1.498238706E+00 1.497998622E+00 1.497758776E+00
 1.497518600E+00 1.497278171E+00 1.497037743E+00 1.496797314E+00 1.496559942E+00
 1.496329911E+00 1.496099845E+00 1.495869779E+00 1.495639713E+00 1.495422580E+00
 1.495213962E+00 1.495005352E+00 1.494796742E+00 1.494588208E+00 1.494402728E+00
 1.494219573E+00 1.494036419E+00 1.493853264E+00 1.493676322E+00 1.493521518E+00
 1.493366718E+00 1.493212356E+00 1.493058015E+00 1.492922926E+00 1.492805219E+00
 1.492687511E+00 1.492570253E+00 1.492453000E+00 1.492357307E+00 1.492266040E+00
 1.492193440E+00 1.492140745E+00 1.492089895E+00 1.492049469E+00 1.492001888E+00
 1.491959856E+00 1.491938163E+00 1.491947328E+00 1.491979625E+00 1.492015102E+00
 1.492075062E+00 1.492134996E+00 1.492221648E+00 1.492316871E+00 1.492434564E+00
 1.492583192E+00 1.492736724E+00 1.492944546E+00 1.493152851E+00 1.493398185E+00
 1.493657234E+00 1.493936935E+00 1.494261687E+00 1.494635275E+00 1.495055588E+00
 1.495487826E+00 1.495954342E+00 1.496489990E+00 1.497154385E+00 1.497822199E+00
 1.498586061E+00 1.498960838E+00 1.499329673E+00 1.499707379E+00 1.500123167E+00
 1.500584730E+00 1.501063964E+00 1.501547950E+00 1.502064324E+00 1.502635771E+00
 1.503243485E+00 1.503875978E+00 1.504538895E+00 1.505229709E+00 1.505945631E+00
 1.506688694E+00 1.507437638E+00 1.508173160E+00 1.508911922E+00 1.509619774E+00
 1.510272502E+00 1.510937044E+00 1.511548307E+00 1.512066479E+00 1.512582781E+00
 1.513130487E+00 1.513653860E+00 1.514106043E+00 1.514482838E+00 1.514810396E+00
 1.515118181E+00 1.515425709E+00 1.516156908E+00 1.516831258E+00 1.517382852E+00
 1.517873152E+00 1.518310975E+00 1.518679197E+00 1.519046586E+00 1.519336941E+00
 1.519599778E+00 1.519835921E+00 1.520012121E+00 1.520188321E+00 1.520319511E+00
 1.520425059E+00 1.520502574E+00 1.520557542E+00 1.520610444E+00 1.520615064E+00
 1.520619247E+00 1.520597396E+00 1.520559154E+00 1.520514248E+00 1.520441781E+00
 1.520369166E+00 1.520269453E+00 1.520161294E+00 1.520041838E+00 1.519901021E+00
 1.519760013E+00 1.519596555E+00 1.519430953E+00 1.519251912E+00 1.519059643E+00
 1.518864675E+00 1.518643765E+00 1.518422256E+00 1.518200721E+00 1.517979186E+00
 1.517750316E+00 1.517499229E+00 1.517247624E+00 1.516983157E+00 1.516716123E+00
 1.516439936E+00 1.516150087E+00 1.515860094E+00 1.515570102E+00 1.515280110E+00
 1.514979756E+00 1.514671594E+00 1.514360823E+00 1.514038947E+00 1.513717071E+00
 1.513386593E+00 1.513052671E+00 1.512717080E+00 1.512378200E+00 1.512039381E+00
 1.511698637E+00 1.511346143E+00 1.510981089E+00 1.510608138E+00 1.510236760E+00
 1.509887671E+00 1.509561866E+00 1.509244387E+00 1.508928915E+00 1.508608652E+00
 1.508269342E+00 1.507926364E+00 1.507583544E+00 1.507240927E+00 1.506899739E+00
 1.506560111E+00 1.506214876E+00 1.505874318E+00 1.505524975E+00 1.505199044E+00
 1.504743454E+00
 1.106451613E-01 1.106451613E-01 1.106451613E-01 1.106451613E-01 1.106451613E-01
 1.106451613E-01 1.106451613E-01 1.106451613E-01 1.106451613E-01 1.106451613E-01
 1.106451613E-01 1.106451613E-01 1.106451613E-01 1.106451613E-01 1.106451613E-01
 1.106451613E-01 1.106451613E-01 1.106451613E-01 1.106451613E-01 1.106451613E-01
 1.106451613E-01 1.106451613E-01 1.106451613E-01 1.106451613E-01 1.106451613E-01
 1.106451613E-01 1.106451613E-01 1.106451613E-01 1.106451613E-01 1.106451613E-01
 1.106451613E-01 1.106451613E-01 1.106451613E-01 1.106451613E-01 1.106451613E-01
 1.106451613E-01 1.106451613E-01 1.106451613E-01 1.106451613E-01 1.106451613E-01
 1.106451613E-01 1.106451613E-01 1.106451613E-01 1.106451613E-01 1.106451613E-01
 1.106451613E-01 1.106451613E-01 1.106451613E-01 1.106451613E-01 1.106451613E-01
 1.106451613E-01 1.106451613E-01 1.106451613E-01 1.106451613E-01 1.106451613E-01
 1.106451613E-01 1.106451613E-01 1.106451613E-01 1.106451613E-01 1.106451613E-01
 1.106451613E-01 1.106451613E-01 1.106451613E-01 1.106451613E-01 1.106451613E-01
 1.106451613E-01 1.106451613E-01 1.106451613E-01 1.106451613E-01 1.106451613E-01
 1.106451613E-01 1.106451613E-01 1.106451613E-01 1.106451613E-01 1.106451613E-01
 1.106451613E-01 1.106451613E-01 1.106451613E-01 1.106451613E-01 1.106451613E-01
 1.106451613E-01 1.106451613E-01 1.106451613E-01 1.106451613E-01 1.106451613E-01
 1.106451613E-01 1.106451613E-01 1.106451613E-01 1.106451613E-01 1.106451613E-01
 1.106451613E-01 1.106451613E-01 1.106451613E-01 1.106451613E-01 1.106451613E-01
 1.106451613E-01 1.106451613E-01 1.106451613E-01 1.106451613E-01 1.106451613E-01
 1.106451613E-01 1.106451613E-01 1.106451613E-01 1.106451613E-01 1.106451613E-01
 1.106451613E-01 1.106451613E-01 1.106451613E-01 1.106451613E-01 1.106451613E-01
 1.106451613E-01 1.106451613E-01 1.106451613E-01 1.106451613E-01 1.106451613E-01
 1.106451613E-01 1.106451613E-01 1.106451613E-01 1.106451613E-01 1.106451613E-01
 1.106451613E-01 1.106451613E-01 1.106451613E-01 1.106451613E-01 1.106451613E-01
 1.106451613E-01 1.106451613E-01 1.106451613E-01 1.106451613E-01 1.106451613E-01
 1.106451613E-01 1.106451613E-01 1.106451613E-01 1.106451613E-01 1.106451613E-01
 1.106451613E-01 1.106451613E-01 1.106451613E-01 1.106451613E-01 1.106451613E-01
 1.106451613E-01 1.106451613E-01 1.106451613E-01 1.106451613E-01 1.106451613E-01
 1.106451613E-01 1.106451613E-01 1.106451613E-01 1.106451613E-01 1.106451613E-01
 1.106451613E-01 1.106451613E-01 1.106451613E-01 1.106451613E-01 1.106451613E-01
 1.106451613E-01 1.106451613E-01 1.106451613E-01 1.106451613E-01 1.106451613E-01
 1.106451613E-01 1.106451613E-01 1.106451613E-01 1.106451613E-01 1.106451613E-01
 1.106451613E-01 1.106451613E-01 1.106451613E-01 1.106451613E-01 1.106451613E-01
 1.106451613E-01 1.106451613E-01 1.106451613E-01 1.106451613E-01 1.106451613E-01
 1.106451613E-01 1.106451613E-01 1.106451613E-01 1.106451613E-01 1.106451613E-01
 1.106451613E-01 1.106451613E-01 1.106451613E-01 1.106451613E-01 1.106451613E-01
 1.106451613E-01 1.106451613E-01 1.106451613E-01 1.106451613E-01 1.106451613E-01
 1.106451613E-01 1.106451613E-01 1.106451613E-01 1.106451613E-01 1.106451613E-01
 1.106451613E-01 1.106451613E-01 1.106451613E-01 1.106451613E-01 1.106451613E-01
 1.106451613E-01 1.106451613E-01 1.106451613E-01 1.106451613E-01 1.106451613E-01
 1.106451613E-01 1.106451613E-01 1.106451613E-01 1.106451613E-01 1.106451613E-01
 1.106451613E-01 1.106451613E-01 1.106451613E-01 1.106451613E-01 1.106451613E-01
 1.106451613E-01 1.106451613E-01 1.106451613E-01 1.106451613E-01 1.106451613E-01
 1.106451613E-01
 3.773139231E+01 4.017352629E+01 4.198083699E+01 4.305926622E+01 4.354314572E+01
 4.360451309E+01 4.409012671E+01 4.479674322E+01 4.542562622E+01 4.609292907E+01
 4.684712733E+01 4.778079742E+01 4.857599608E+01 4.938411714E+01 5.021251830E+01
 5.076414635E+01 5.114212637E+01 5.137826325E+01 5.112616864E+01 5.043631073E+01
 4.960477580E+01 4.855669814E+01 4.723974768E+01 4.565583857E+01 4.423899927E+01
 4.315026367E+01 4.227487202E+01 4.154609710E+01 4.101017693E+01 4.036789242E+01
 3.852651008E+01 3.038412930E+01 2.838450218E+01 2.788884382E+01 2.041673232E+01
 1.495989612E+01 8.582515503E+00 2.671981531E+00 -3.037820796E+00 -9.590205727E+00
 -1.666681846E+01 -2.378793520E+01 -3.080072743E+01 -3.751027218E+01 -4.432972426E+01
 -5.129775224E+01 -5.837684900E+01 -6.545029125E+01 -7.248695280E+01 -7.973541539E+01
 -8.777473079E+01 -9.533690562E+01 -1.025463125E+02 -1.097592155E+02 -1.154859614E+02
 -1.212990839E+02 -1.284429551E+02 -1.365932446E+02 -1.423555133E+02 -1.446750399E+02
 -1.484507693E+02 -1.545646458E+02 -1.624213010E+02 -1.675168033E+02 -1.693253251E+02
 -1.735297127E+02 -1.795321521E+02 -1.864087246E+02 -1.908231058E+02 -1.939419134E+02
 -1.996886963E+02 -2.086906517E+02 -2.151174033E+02 -2.132901327E+02 -2.130320194E+02
 -2.176495675E+02 -2.252252600E+02 -2.305495854E+02 -2.344432401E+02 -2.379703209E+02
 -2.360304499E+02 -2.345956389E+02 -2.345441143E+02 -2.393455519E+02 -2.488760162E+02
 -2.555323043E+02 -2.547425773E+02 -2.495407799E+02 -2.469534149E+02 -2.426846182E+02
 -2.412963320E+02 -2.415746762E+02 -2.401476949E+02 -2.393612765E+02 -2.359991519E+02
 -2.346698804E+02 -2.264710461E+02 -2.162172157E+02 -2.089266275E+02 -2.014269299E+02
 -2.008081493E+02 -1.962631357E+02 -1.814259447E+02 -1.583089547E+02 -1.409604835E+02
 -1.386295045E+02 -1.310955497E+02 -8.943184393E+01 -4.538560793E+01 -1.479996095E+01
 3.989178746E+01 7.840073023E+01 8.139980257E+01 9.406500846E+01 1.368291414E+02
 1.889978423E+02 2.228459510E+02 2.513122361E+02 2.986813610E+02 3.562393120E+02
 4.072312407E+02 4.539124877E+02 4.967373326E+02 5.280892335E+02 5.418437451E+02
 5.276970122E+02 4.892804210E+02 4.415071276E+02 3.457640575E+02 2.375498213E+02
 1.927225642E+02 8.753961850E+01 -5.876924070E+01 -6.189550343E+01 -1.934207259E+01
 -1.011705658E+02 -2.666315951E+02 -3.861272374E+02 -4.097588698E+02 -3.701073086E+02
 -3.194641318E+02 -2.966913922E+02 -3.165457277E+02 -3.743802881E+02 -4.067291174E+02
 -3.974249949E+02 -3.950733644E+02 -3.860701676E+02 -3.854244578E+02 -3.894679962E+02
 -3.792739040E+02 -3.823853978E+02 -3.737523849E+02 -3.622046017E+02 -3.637996208E+02
 -3.570937463E+02 -3.494000231E+02 -3.385435340E+02 -3.341462388E+02 -3.302337764E+02
 -3.204961472E+02 -3.170397085E+02 -3.083333442E+02 -3.018772720E+02 -2.967475166E+02
 -2.937025997E+02 -2.909527032E+02 -2.842357289E+02 -2.816148207E+02 -2.726804856E+02
 -2.639374363E+02 -2.587262105E+02 -2.507443869E+02 -2.448238292E+02 -2.378276359E+02
 -2.311177664E+02 -2.252947246E+02 -2.150612987E+02 -2.056534495E+02 -1.986318607E+02
 -1.935857285E+02 -1.875220949E+02 -1.781470064E+02 -1.693695605E+02 -1.607141468E+02
 -1.533642937E+02 -1.453983816E+02 -1.349898128E+02 -1.254135479E+02 -1.173663545E+02
 -1.099995074E+02 -1.023195172E+02 -9.415521537E+01 -8.544362872E+01 -7.665035841E+01
 -6.846787293E+01 -6.080756353E+01 -5.317389994E+01 -4.535995058E+01 -3.826419255E+01
 -3.272014172E+01 -2.805041452E+01 -2.247434653E+01 -1.581411668E+01 -8.847451797E+00
 -2.468447620E+00 2.285422005E+00 5.036847317E+00 6.437562748E+00 7.033332166E+00
 8.216498030E+00 1.085828373E+01 1.391454170E+01 1.674005557E+01 1.972603613E+01
 2.265710924E+01 2.578811590E+01 2.930100185E+01 3.373087681E+01 3.650407042E+01
 3.773139231E+01
ZONE T="Slice: Z=0.12129 (region 2)"
 STRANDID=7, SOLUTIONTIME=0
 I=221, J=1, K=1, ZONETYPE=Ordered
 DATAPACKING=BLOCK