TITLE     = "Fluent Common Fluid Files Data"
VARIABLES = "X"
"Y"
"Z"
"Static Pressure"
DATASETAUXDATA Common.DensityVar="7"
DATASETAUXDATA Common.PressureVar="15"
DATASETAUXDATA Common.TemperatureVar="17"
DATASETAUXDATA Common.TurbulentDynamicViscosityVar="12"
DATASETAUXDATA Common.TurbulentKineticEnergyVar="10"
DATASETAUXDATA Common.UVar="18"
DATASETAUXDATA Common.VectorVarsAreVelocity="True"
DATASETAUXDATA Common.ViscosityVar="11"
DATASETAUXDATA Common.VVar="19"
DATASETAUXDATA Common.WVar="20"
ZONE T="Slice: Z=0.1 (region 2)"
 STRANDID=7, SOLUTIONTIME=0
 I=223, J=1, K=1, ZONETYPE=Ordered
 DATAPACKING=BLOCK
 DT=(DOUBLE DOUBLE DOUBLE DOUBLE )
 2.559605255E+00 2.559597014E+00 2.559588715E+00 2.559580404E+00 2.559572082E+00
 2.559563747E+00 2.559555401E+00 2.559547043E+00 2.559538673E+00 2.559530291E+00
 2.559521862E+00 2.559513370E+00 2.559504861E+00 2.559496338E+00 2.559487630E+00
 2.559476965E+00 2.559466286E+00 2.559455594E+00 2.559444888E+00 2.559434168E+00
 2.559423434E+00 2.559412686E+00 2.559401925E+00 2.559391149E+00 2.559380358E+00
 2.559369553E+00 2.559358734E+00 2.559347900E+00 2.559337053E+00 2.559326192E+00
 2.559315316E+00 2.559303055E+00 2.557579427E+00 2.555821620E+00 2.554079477E+00
 2.552335100E+00 2.550593446E+00 2.548853066E+00 2.547115790E+00 2.545380748E+00
 2.543647168E+00 2.541916399E+00 2.540186108E+00 2.538460589E+00 2.536736683E+00
 2.535014303E+00 2.533294404E+00 2.531577402E+00 2.529863294E+00 2.528148800E+00
 2.526436767E+00 2.524725806E+00 2.523017035E+00 2.521308524E+00 2.519598705E+00
 2.517888813E+00 2.516179089E+00 2.514469816E+00 2.512760798E+00 2.511051564E+00
 2.509341298E+00 2.507629510E+00 2.505917953E+00 2.504208663E+00 2.502497853E+00
 2.500784526E+00 2.499070408E+00 2.497357425E+00 2.495648669E+00 2.493937192E+00
 2.492221007E+00 2.490504985E+00 2.488794671E+00 2.487090178E+00 2.485381372E+00
 2.483671517E+00 2.483666188E+00 2.481947734E+00 2.480237352E+00 2.478530502E+00
 2.476823133E+00 2.475121183E+00 2.473411001E+00 2.471699213E+00 2.469986543E+00
 2.468272207E+00 2.466570051E+00 2.464878384E+00 2.463189110E+00 2.461486994E+00
 2.459788807E+00 2.458089653E+00 2.456393033E+00 2.454699843E+00 2.453005516E+00
 2.451321606E+00 2.449628853E+00 2.447948503E+00 2.446263181E+00 2.444574914E+00
 2.442887716E+00 2.441199906E+00 2.439520423E+00 2.437852319E+00 2.436177578E+00
 2.434494005E+00 2.432811409E+00 2.431142629E+00 2.429493608E+00 2.427839686E+00
 2.426203699E+00 2.424584659E+00 2.423960659E+00 2.423332097E+00 2.422705080E+00
 2.422087567E+00 2.421495754E+00 2.420919435E+00 2.420348749E+00 2.419792536E+00
 2.419281504E+00 2.418814029E+00 2.418384430E+00 2.418023156E+00 2.417744834E+00
 2.417516751E+00 2.417448011E+00 2.417695354E+00 2.417955250E+00 2.418244913E+00
 2.418740953E+00 2.419250175E+00 2.419730892E+00 2.420319169E+00 2.420951202E+00
 2.421553622E+00 2.422132616E+00 2.422733711E+00 2.423375524E+00 2.424053191E+00
 2.424752804E+00 2.425460998E+00 2.426169539E+00 2.427786633E+00 2.429404889E+00
 2.431053025E+00 2.432715676E+00 2.434386314E+00 2.436073579E+00 2.437758781E+00
 2.439453335E+00 2.441157014E+00 2.442859854E+00 2.444573363E+00 2.446287654E+00
 2.448005462E+00 2.449726927E+00 2.451453076E+00 2.453182762E+00 2.454909454E+00
 2.456641804E+00 2.458373924E+00 2.460108835E+00 2.461841900E+00 2.463576557E+00
 2.465312926E+00 2.467050986E+00 2.468785515E+00 2.470524667E+00 2.472258226E+00
 2.473987046E+00 2.475718253E+00 2.477447528E+00 2.479171110E+00 2.480897378E+00
 2.482616845E+00 2.484337353E+00 2.486057496E+00 2.487767527E+00 2.489478233E+00
 2.491179488E+00 2.492881001E+00 2.494577079E+00 2.496267478E+00 2.497956658E+00
 2.499635407E+00 2.501313137E+00 2.502985468E+00 2.504650094E+00 2.506308957E+00
 2.507961070E+00 2.509609974E+00 2.511251273E+00 2.512889677E+00 2.514523094E+00
 2.516148882E+00 2.517772845E+00 2.519396064E+00 2.521011028E+00 2.522623902E+00
 2.524234676E+00 2.525844544E+00 2.527452570E+00 2.529059201E+00 2.529198527E+00
 2.530663465E+00 2.532272273E+00 2.533903265E+00 2.535532877E+00 2.537174411E+00
 2.538826372E+00 2.540487035E+00 2.542160644E+00 2.543849255E+00 2.545553734E+00
 2.547271167E+00 2.548994104E+00 2.550736704E+00 2.552485974E+00 2.554250360E+00
 2.556033100E+00 2.557810291E+00 2.559605255E+00
 1.501281756E+00 1.501215362E+00 1.501148994E+00 1.501082649E+00 1.501016326E+00
 1.500950025E+00 1.500883748E+00 1.500817492E+00 1.500751260E+00 1.500685050E+00
 1.500618862E+00 1.500552698E+00 1.500486556E+00 1.500420438E+00 1.500354319E+00
 1.500287960E+00 1.500221626E+00 1.500155318E+00 1.500089035E+00 1.500022778E+00
 1.499956547E+00 1.499890341E+00 1.499824161E+00 1.499758007E+00 1.499691879E+00
 1.499625777E+00 1.499559700E+00 1.499493650E+00 1.499427626E+00 1.499361627E+00
 1.499295655E+00 1.499229547E+00 1.498814974E+00 1.498547142E+00 1.498273075E+00
 1.498017608E+00 1.497767185E+00 1.497519814E+00 1.497280923E+00 1.497055694E+00
 1.496831299E+00 1.496609928E+00 1.496390044E+00 1.496184383E+00 1.495990150E+00
 1.495802538E+00 1.495619629E+00 1.495440630E+00 1.495266770E+00 1.495085731E+00
 1.494917464E+00 1.494763363E+00 1.494629201E+00 1.494491645E+00 1.494358131E+00
 1.494229262E+00 1.494101364E+00 1.493977796E+00 1.493862627E+00 1.493769760E+00
 1.493678989E+00 1.493568774E+00 1.493467279E+00 1.493371316E+00 1.493277578E+00
 1.493196727E+00 1.493112934E+00 1.493039832E+00 1.492964149E+00 1.492885097E+00
 1.492812355E+00 1.492737337E+00 1.492671405E+00 1.492627418E+00 1.492610256E+00
 1.492579345E+00 1.492579223E+00 1.492532984E+00 1.492489776E+00 1.492461203E+00
 1.492432225E+00 1.492413140E+00 1.492394340E+00 1.492389818E+00 1.492391358E+00
 1.492396322E+00 1.492406584E+00 1.492420317E+00 1.492451805E+00 1.492485933E+00
 1.492543338E+00 1.492606829E+00 1.492679972E+00 1.492759810E+00 1.492847881E+00
 1.492944848E+00 1.493054099E+00 1.493177583E+00 1.493315283E+00 1.493476109E+00
 1.493640294E+00 1.493835354E+00 1.494032110E+00 1.494259767E+00 1.494501175E+00
 1.494774417E+00 1.495072066E+00 1.495392952E+00 1.495761691E+00 1.496203559E+00
 1.496697682E+00 1.497255268E+00 1.497505294E+00 1.497747990E+00 1.498004483E+00
 1.498297427E+00 1.498631994E+00 1.498978110E+00 1.499340435E+00 1.499751535E+00
 1.500220373E+00 1.500719248E+00 1.501251986E+00 1.501839246E+00 1.502476070E+00
 1.503162004E+00 1.503937742E+00 1.504714622E+00 1.505402713E+00 1.506078663E+00
 1.506706584E+00 1.507254822E+00 1.507798510E+00 1.508279031E+00 1.508679812E+00
 1.509096807E+00 1.509536107E+00 1.509949351E+00 1.510306087E+00 1.510611254E+00
 1.510888235E+00 1.511156951E+00 1.511425482E+00 1.511971657E+00 1.512501691E+00
 1.512928705E+00 1.513312065E+00 1.513658244E+00 1.513964513E+00 1.514244365E+00
 1.514489489E+00 1.514708833E+00 1.514898887E+00 1.515055029E+00 1.515202344E+00
 1.515329589E+00 1.515432234E+00 1.515525226E+00 1.515596276E+00 1.515659011E+00
 1.515700219E+00 1.515727987E+00 1.515749222E+00 1.515740265E+00 1.515736629E+00
 1.515723427E+00 1.515713296E+00 1.515663970E+00 1.515624139E+00 1.515550966E+00
 1.515442888E+00 1.515342383E+00 1.515225629E+00 1.515088493E+00 1.514954853E+00
 1.514797347E+00 1.514639170E+00 1.514472134E+00 1.514278762E+00 1.514090518E+00
 1.513875008E+00 1.513655635E+00 1.513417668E+00 1.513165987E+00 1.512912121E+00
 1.512632801E+00 1.512348382E+00 1.512052371E+00 1.511739719E+00 1.511421065E+00
 1.511087389E+00 1.510746546E+00 1.510390456E+00 1.510030432E+00 1.509661711E+00
 1.509278442E+00 1.508893478E+00 1.508509104E+00 1.508108119E+00 1.507703128E+00
 1.507296400E+00 1.506890984E+00 1.506485007E+00 1.506071219E+00 1.506036065E+00
 1.505646926E+00 1.505216764E+00 1.504817408E+00 1.504435827E+00 1.504087170E+00
 1.503761581E+00 1.503458699E+00 1.503163968E+00 1.502880159E+00 1.502622225E+00
 1.502390138E+00 1.502161980E+00 1.501973554E+00 1.501796112E+00 1.501646372E+00
 1.501527665E+00 1.501423597E+00 1.501281756E+00
 1.000000000E-01 1.000000000E-01 1.000000000E-01 1.000000000E-01 1.000000000E-01
 1.000000000E-01 1.000000000E-01 1.000000000E-01 1.000000000E-01 1.000000000E-01
 1.000000000E-01 1.000000000E-01 1.000000000E-01 1.000000000E-01 1.000000000E-01
 1.000000000E-01 1.000000000E-01 1.000000000E-01 1.000000000E-01 1.000000000E-01
 1.000000000E-01 1.000000000E-01 1.000000000E-01 1.000000000E-01 1.000000000E-01
 1.000000000E-01 1.000000000E-01 1.000000000E-01 1.000000000E-01 1.000000000E-01
 1.000000000E-01 1.000000000E-01 1.000000000E-01 1.000000000E-01 1.000000000E-01
 1.000000000E-01 1.000000000E-01 1.000000000E-01 1.000000000E-01 1.000000000E-01
 1.000000000E-01 1.000000000E-01 1.000000000E-01 1.000000000E-01 1.000000000E-01
 1.000000000E-01 1.000000000E-01 1.000000000E-01 1.000000000E-01 1.000000000E-01
 1.000000000E-01 1.000000000E-01 1.000000000E-01 1.000000000E-01 1.000000000E-01
 1.000000000E-01 1.000000000E-01 1.000000000E-01 1.000000000E-01 1.000000000E-01
 1.000000000E-01 1.000000000E-01 1.000000000E-01 1.000000000E-01 1.000000000E-01
 1.000000000E-01 1.000000000E-01 1.000000000E-01 1.000000000E-01 1.000000000E-01
 1.000000000E-01 1.000000000E-01 1.000000000E-01 1.000000000E-01 1.000000000E-01
 1.000000000E-01 1.000000000E-01 1.000000000E-01 1.000000000E-01 1.000000000E-01
 1.000000000E-01 1.000000000E-01 1.000000000E-01 1.000000000E-01 1.000000000E-01
 1.000000000E-01 1.000000000E-01 1.000000000E-01 1.000000000E-01 1.000000000E-01
 1.000000000E-01 1.000000000E-01 1.000000000E-01 1.000000000E-01 1.000000000E-01
 1.000000000E-01 1.000000000E-01 1.000000000E-01 1.000000000E-01 1.000000000E-01
 1.000000000E-01 1.000000000E-01 1.000000000E-01 1.000000000E-01 1.000000000E-01
 1.000000000E-01 1.000000000E-01 1.000000000E-01 1.000000000E-01 1.000000000E-01
 1.000000000E-01 1.000000000E-01 1.000000000E-01 1.000000000E-01 1.000000000E-01
 1.000000000E-01 1.000000000E-01 1.000000000E-01 1.000000000E-01 1.000000000E-01
 1.000000000E-01 1.000000000E-01 1.000000000E-01 1.000000000E-01 1.000000000E-01
 1.000000000E-01 1.000000000E-01 1.000000000E-01 1.000000000E-01 1.000000000E-01
 1.000000000E-01 1.000000000E-01 1.000000000E-01 1.000000000E-01 1.000000000E-01
 1.000000000E-01 1.000000000E-01 1.000000000E-01 1.000000000E-01 1.000000000E-01
 1.000000000E-01 1.000000000E-01 1.000000000E-01 1.000000000E-01 1.000000000E-01
 1.000000000E-01 1.000000000E-01 1.000000000E-01 1.000000000E-01 1.000000000E-01
 1.000000000E-01 1.000000000E-01 1.000000000E-01 1.000000000E-01 1.000000000E-01
 1.000000000E-01 1.000000000E-01 1.000000000E-01 1.000000000E-01 1.000000000E-01
 1.000000000E-01 1.000000000E-01 1.000000000E-01 1.000000000E-01 1.000000000E-01
 1.000000000E-01 1.000000000E-01 1.000000000E-01 1.000000000E-01 1.000000000E-01
 1.000000000E-01 1.000000000E-01 1.000000000E-01 1.000000000E-01 1.000000000E-01
 1.000000000E-01 1.000000000E-01 1.000000000E-01 1.000000000E-01 1.000000000E-01
 1.000000000E-01 1.000000000E-01 1.000000000E-01 1.000000000E-01 1.000000000E-01
 1.000000000E-01 1.000000000E-01 1.000000000E-01 1.000000000E-01 1.000000000E-01
 1.000000000E-01 1.000000000E-01 1.000000000E-01 1.000000000E-01 1.000000000E-01
 1.000000000E-01 1.000000000E-01 1.000000000E-01 1.000000000E-01 1.000000000E-01
 1.000000000E-01 1.000000000E-01 1.000000000E-01 1.000000000E-01 1.000000000E-01
 1.000000000E-01 1.000000000E-01 1.000000000E-01 1.000000000E-01 1.000000000E-01
 1.000000000E-01 1.000000000E-01 1.000000000E-01 1.000000000E-01 1.000000000E-01
 1.000000000E-01 1.000000000E-01 1.000000000E-01 1.000000000E-01 1.000000000E-01
 1.000000000E-01 1.000000000E-01 1.000000000E-01
 -3.051197482E+01 -5.718136382E+01 -3.620434206E+01 -3.082298319E+01 -2.945311312E+01
 -2.848279836E+01 -2.755834968E+01 -2.660578348E+01 -2.560162722E+01 -2.459079862E+01
 -2.336705346E+01 -2.215181928E+01 -2.124321222E+01 -2.025555582E+01 -1.900959885E+01
 -1.819285591E+01 -1.778209259E+01 -1.738145486E+01 -1.718208279E+01 -1.730872864E+01
 -1.759884332E+01 -1.782424142E+01 -1.832723922E+01 -1.894347017E+01 -1.955005050E+01
 -2.014913595E+01 -2.060632210E+01 -2.113275377E+01 -2.172923732E+01 -2.226334112E+01
 -2.285459986E+01 -2.557099399E+01 -3.335555764E+01 -4.398251544E+01 -5.431442844E+01
 -6.497376244E+01 -7.665612777E+01 -8.948604222E+01 -1.029981663E+02 -1.169440574E+02
 -1.313026456E+02 -1.457272181E+02 -1.599216160E+02 -1.733546162E+02 -1.863512938E+02
 -1.993208708E+02 -2.122739939E+02 -2.253130324E+02 -2.390075338E+02 -2.533337710E+02
 -2.669087512E+02 -2.791363216E+02 -2.906269750E+02 -3.025080447E+02 -3.141355631E+02
 -3.255850793E+02 -3.377448413E+02 -3.501795904E+02 -3.606496616E+02 -3.685598735E+02
 -3.778058471E+02 -3.885872403E+02 -3.991013242E+02 -4.093826955E+02 -4.188717900E+02
 -4.283172173E+02 -4.378262202E+02 -4.471171670E+02 -4.571850184E+02 -4.676632176E+02
 -4.790054690E+02 -4.925500022E+02 -5.053690773E+02 -5.124920435E+02 -5.185245556E+02
 -5.300902873E+02 -5.301264647E+02 -5.443161532E+02 -5.564533533E+02 -5.688651361E+02
 -5.813540021E+02 -5.925991383E+02 -6.045979127E+02 -6.166142378E+02 -6.305509158E+02
 -6.466803745E+02 -6.632316065E+02 -6.776387574E+02 -6.905176899E+02 -7.044163090E+02
 -7.169215623E+02 -7.305932597E+02 -7.457058057E+02 -7.617885328E+02 -7.807866970E+02
 -7.979339416E+02 -8.160976894E+02 -8.342348245E+02 -8.506603597E+02 -8.716128820E+02
 -8.932831388E+02 -9.221305838E+02 -9.517469341E+02 -9.762550797E+02 -1.002388446E+03
 -1.039634212E+03 -1.098074811E+03 -1.158596614E+03 -1.196982878E+03 -1.248841149E+03
 -1.333490768E+03 -1.376612900E+03 -1.420907616E+03 -1.508232850E+03 -1.562525001E+03
 -1.549036773E+03 -1.537135200E+03 -1.598919640E+03 -1.666763918E+03 -1.652013479E+03
 -1.593245784E+03 -1.573782158E+03 -1.528395887E+03 -1.372066885E+03 -1.271832363E+03
 -1.201906973E+03 -7.266599436E+02 -1.579144657E+02 9.073910133E+01 2.832638903E+02
 4.615059113E+02 5.471244112E+02 5.885898824E+02 6.148326789E+02 6.195984527E+02
 6.099387946E+02 5.876314642E+02 5.541001818E+02 5.184028497E+02 4.897352619E+02
 4.690276788E+02 4.492757390E+02 4.178136743E+02 3.745437359E+02 3.214609759E+02
 2.752949006E+02 2.466747968E+02 2.190020222E+02 1.949874886E+02 1.713996544E+02
 1.493767184E+02 1.328710472E+02 1.154744605E+02 1.044026435E+02 9.404883436E+01
 8.018212957E+01 7.037987096E+01 6.120728092E+01 5.346814013E+01 4.389026202E+01
 3.488423817E+01 2.847688163E+01 1.959801602E+01 1.422239886E+01 8.413279847E+00
 -3.806672074E-01 -1.324396107E+01 -2.493713274E+01 -3.505984362E+01 -4.771469053E+01
 -4.917235332E+01 -4.961481210E+01 -5.653906901E+01 -5.952889115E+01 -6.383117186E+01
 -6.886029102E+01 -7.412561759E+01 -8.187808060E+01 -8.485703341E+01 -8.897085696E+01
 -9.426556006E+01 -9.809379255E+01 -1.011428599E+02 -1.002550468E+02 -1.019690861E+02
 -1.027744578E+02 -1.010802306E+02 -1.013003356E+02 -9.834877553E+01 -9.459986357E+01
 -9.148821127E+01 -8.687008282E+01 -8.092351907E+01 -7.424696517E+01 -6.718820950E+01
 -5.843170879E+01 -4.924231380E+01 -4.147963477E+01 -3.270179651E+01 -2.132247643E+01
 -9.802751098E+00 1.100028075E+00 1.159145592E+01 2.369400487E+01 2.482595913E+01
 3.699562669E+01 5.064348834E+01 6.258800834E+01 7.085726142E+01 7.666937737E+01
 8.054195932E+01 8.268900845E+01 8.481113178E+01 8.824192470E+01 9.113576641E+01
 9.152772377E+01 9.163289423E+01 8.974314023E+01 8.431769678E+01 7.561911005E+01
 5.934244920E+01 3.087865991E+01 -3.051197482E+01
ZONE T="Slice: Z=0.110645 (region 2)"
 STRANDID=7, SOLUTIONTIME=0
 I=221, J=1, K=1, ZONETYPE=Ordered
 DATAPACKING=BLOCK
 DT=(DOUBLE DOUBLE DOUBLE DOUBLE )
 2.566367336E+00 2.566367349E+00 2.566367349E+00 2.566367349E+00 2.566367349E+00
 2.566367349E+00 2.566367349E+00 2.566367349E+00 2.566367349E+00 2.566367349E+00
 2.566367349E+00 2.566367349E+00 2.566367349E+00 2.566367349E+00 2.566367349E+00
 2.566367349E+00 2.566367349E+00 2.566367349E+00 2.566367349E+00 2.566367350E+00
 2.566367350E+00 2.566367350E+00 2.566367350E+00 2.566367350E+00 2.566367350E+00
 2.566367350E+00 2.566367350E+00 2.566367350E+00 2.566367350E+00 2.566367350E+00
 2.566367350E+00 2.566367336E+00 2.564685045E+00 2.562963497E+00 2.561250379E+00
 2.559533624E+00 2.557817090E+00 2.556100555E+00 2.554383976E+00 2.552667375E+00
 2.550950819E+00 2.549234264E+00 2.547517714E+00 2.545801170E+00 2.544084627E+00
 2.542368106E+00 2.540651596E+00 2.538935085E+00 2.537218571E+00 2.535502018E+00
 2.533785512E+00 2.532069047E+00 2.530352581E+00 2.528636116E+00 2.526919225E+00
 2.525201334E+00 2.523483449E+00 2.521765563E+00 2.520047678E+00 2.518328109E+00
 2.516607488E+00 2.514886865E+00 2.513166242E+00 2.511445609E+00 2.509722340E+00
 2.507998822E+00 2.506275303E+00 2.504551784E+00 2.502827618E+00 2.501101323E+00
 2.499375028E+00 2.497648691E+00 2.495922352E+00 2.494194401E+00 2.492465179E+00
 2.490735956E+00 2.489006705E+00 2.487277454E+00 2.485546874E+00 2.483816057E+00
 2.482084351E+00 2.480351930E+00 2.478619456E+00 2.476886704E+00 2.475154133E+00
 2.473421423E+00 2.471688333E+00 2.469955135E+00 2.468222211E+00 2.466489359E+00
 2.464757175E+00 2.463024989E+00 2.461293922E+00 2.459563314E+00 2.457834092E+00
 2.456107229E+00 2.454380849E+00 2.452660103E+00 2.450939459E+00 2.449223687E+00
 2.447509911E+00 2.445799427E+00 2.444096901E+00 2.442404428E+00 2.440722931E+00
 2.439044479E+00 2.437375212E+00 2.435726861E+00 2.434126035E+00 2.432526637E+00
 2.430970803E+00 2.430320046E+00 2.429665905E+00 2.429016842E+00 2.428391498E+00
 2.427799131E+00 2.427220966E+00 2.426646771E+00 2.426101520E+00 2.425614301E+00
 2.425173154E+00 2.424768287E+00 2.424415475E+00 2.424120984E+00 2.423894189E+00
 2.423785535E+00 2.423840283E+00 2.423991711E+00 2.424126609E+00 2.424377379E+00
 2.424748681E+00 2.425097460E+00 2.425535214E+00 2.426078284E+00 2.426623898E+00
 2.427137556E+00 2.427676664E+00 2.428276023E+00 2.428925123E+00 2.429600744E+00
 2.430285740E+00 2.430970803E+00 2.432549704E+00 2.434153880E+00 2.435804177E+00
 2.437473755E+00 2.439157806E+00 2.440858437E+00 2.442559332E+00 2.444275020E+00
 2.445995116E+00 2.447719090E+00 2.449450239E+00 2.451181378E+00 2.452916434E+00
 2.454653290E+00 2.456391648E+00 2.458130876E+00 2.459870159E+00 2.461610193E+00
 2.463350227E+00 2.465090081E+00 2.466829619E+00 2.468569037E+00 2.470307686E+00
 2.472046324E+00 2.473783564E+00 2.475520270E+00 2.477256192E+00 2.478990426E+00
 2.480724637E+00 2.482456874E+00 2.484188892E+00 2.485919795E+00 2.487649485E+00
 2.489378836E+00 2.491104847E+00 2.492830744E+00 2.494556635E+00 2.496282526E+00
 2.498007509E+00 2.499729527E+00 2.501451432E+00 2.503171191E+00 2.504890514E+00
 2.506608492E+00 2.508324301E+00 2.510040075E+00 2.511755849E+00 2.513471621E+00
 2.515185669E+00 2.516898366E+00 2.518610512E+00 2.520320451E+00 2.522030393E+00
 2.523738434E+00 2.525445688E+00 2.527152737E+00 2.528859445E+00 2.530566170E+00
 2.532273213E+00 2.533977758E+00 2.535679168E+00 2.537378437E+00 2.539078129E+00
 2.540783007E+00 2.542492363E+00 2.544203230E+00 2.545914432E+00 2.547624752E+00
 2.549331445E+00 2.551037382E+00 2.552743309E+00 2.554449277E+00 2.556155495E+00
 2.557862010E+00 2.559567753E+00 2.561274182E+00 2.562978589E+00 2.564688336E+00
 2.566367336E+00
 1.504743454E+00 1.504662721E+00 1.504581988E+00 1.504501256E+00 1.504420523E+00
 1.504339791E+00 1.504259058E+00 1.504178326E+00 1.504097593E+00 1.504016861E+00
 1.503936128E+00 1.503855396E+00 1.503774663E+00 1.503693931E+00 1.503613198E+00
 1.503532466E+00 1.503451734E+00 1.503371001E+00 1.503290269E+00 1.503209536E+00
 1.503128804E+00 1.503048071E+00 1.502967339E+00 1.502886606E+00 1.502805874E+00
 1.502725141E+00 1.502644409E+00 1.502563676E+00 1.502482944E+00 1.502402211E+00
 1.502321479E+00 1.502240746E+00 1.501824920E+00 1.501603280E+00 1.501355493E+00
 1.501117087E+00 1.500877151E+00 1.500637219E+00 1.500397567E+00 1.500158066E+00
 1.499918284E+00 1.499678501E+00 1.499438678E+00 1.499198812E+00 1.498958942E+00
 1.498718914E+00 1.498478810E+00 1.498238706E+00 1.497998622E+00 1.497758776E+00
 1.497518600E+00 1.497278171E+00 1.497037743E+00 1.496797314E+00 1.496559942E+00
 1.496329911E+00 1.496099845E+00 1.495869779E+00 1.495639713E+00 1.495422580E+00
 1.495213962E+00 1.495005352E+00 1.494796742E+00 1.494588208E+00 1.494402728E+00
 1.494219573E+00 1.494036419E+00 1.493853264E+00 1.493676322E+00 1.493521518E+00
 1.493366718E+00 1.493212356E+00 1.493058015E+00 1.492922926E+00 1.492805219E+00
 1.492687511E+00 1.492570253E+00 1.492453000E+00 1.492357307E+00 1.492266040E+00
 1.492193440E+00 1.492140745E+00 1.492089895E+00 1.492049469E+00 1.492001888E+00
 1.491959856E+00 1.491938163E+00 1.491947328E+00 1.491979625E+00 1.492015102E+00
 1.492075062E+00 1.492134996E+00 1.492221648E+00 1.492316871E+00 1.492434564E+00
 1.492583192E+00 1.492736724E+00 1.492944546E+00 1.493152851E+00 1.493398185E+00
 1.493657234E+00 1.493936935E+00 1.494261687E+00 1.494635275E+00 1.495055588E+00
 1.495487826E+00 1.495954342E+00 1.496489990E+00 1.497154385E+00 1.497822199E+00
 1.498586061E+00 1.498960838E+00 1.499329673E+00 1.499707379E+00 1.500123167E+00
 1.500584730E+00 1.501063964E+00 1.501547950E+00 1.502064324E+00 1.502635771E+00
 1.503243485E+00 1.503875978E+00 1.504538895E+00 1.505229709E+00 1.505945631E+00
 1.506688694E+00 1.507437638E+00 1.508173160E+00 1.508911922E+00 1.509619774E+00
 1.510272502E+00 1.510937044E+00 1.511548307E+00 1.512066479E+00 1.512582781E+00
 1.513130487E+00 1.513653860E+00 1.514106043E+00 1.514482838E+00 1.514810396E+00
 1.515118181E+00 1.515425709E+00 1.516156908E+00 1.516831258E+00 1.517382852E+00
 1.517873152E+00 1.518310975E+00 1.518679197E+00 1.519046586E+00 1.519336941E+00
 1.519599778E+00 1.519835921E+00 1.520012121E+00 1.520188321E+00 1.520319511E+00
 1.520425059E+00 1.520502574E+00 1.520557542E+00 1.520610444E+00 1.520615064E+00
 1.520619247E+00 1.520597396E+00 1.520559154E+00 1.520514248E+00 1.520441781E+00
 1.520369166E+00 1.520269453E+00 1.520161294E+00 1.520041838E+00 1.519901021E+00
 1.519760013E+00 1.519596555E+00 1.519430953E+00 1.519251912E+00 1.519059643E+00
 1.518864675E+00 1.518643765E+00 1.518422256E+00 1.518200721E+00 1.517979186E+00
 1.517750316E+00 1.517499229E+00 1.517247624E+00 1.516983157E+00 1.516716123E+00
 1.516439936E+00 1.516150087E+00 1.515860094E+00 1.515570102E+00 1.515280110E+00
 1.514979756E+00 1.514671594E+00 1.514360823E+00 1.514038947E+00 1.513717071E+00
 1.513386593E+00 1.513052671E+00 1.512717080E+00 1.512378200E+00 1.512039381E+00
 1.511698637E+00 1.511346143E+00 1.510981089E+00 1.510608138E+00 1.510236760E+00
 1.509887671E+00 1.509561866E+00 1.509244387E+00 1.508928915E+00 1.508608652E+00
 1.508269342E+00 1.507926364E+00 1.507583544E+00 1.507240927E+00 1.506899739E+00
 1.506560111E+00 1.506214876E+00 1.505874318E+00 1.505524975E+00 1.505199044E+00
 1.504743454E+00
 1.106451613E-01 1.106451613E-01 1.106451613E-01 1.106451613E-01 1.106451613E-01
 1.106451613E-01 1.106451613E-01 1.106451613E-01 1.106451613E-01 1.106451613E-01
 1.106451613E-01 1.106451613E-01 1.106451613E-01 1.106451613E-01 1.106451613E-01
 1.106451613E-01 1.106451613E-01 1.106451613E-01 1.106451613E-01 1.106451613E-01
 1.106451613E-01 1.106451613E-01 1.106451613E-01 1.106451613E-01 1.106451613E-01
 1.106451613E-01 1.106451613E-01 1.106451613E-01 1.106451613E-01 1.106451613E-01
 1.106451613E-01 1.106451613E-01 1.106451613E-01 1.106451613E-01 1.106451613E-01
 1.106451613E-01 1.106451613E-01 1.106451613E-01 1.106451613E-01 1.106451613E-01
 1.106451613E-01 1.106451613E-01 1.106451613E-01 1.106451613E-01 1.106451613E-01
 1.106451613E-01 1.106451613E-01 1.106451613E-01 1.106451613E-01 1.106451613E-01
 1.106451613E-01 1.106451613E-01 1.106451613E-01 1.106451613E-01 1.106451613E-01
 1.106451613E-01 1.106451613E-01 1.106451613E-01 1.106451613E-01 1.106451613E-01
 1.106451613E-01 1.106451613E-01 1.106451613E-01 1.106451613E-01 1.106451613E-01
 1.106451613E-01 1.106451613E-01 1.106451613E-01 1.106451613E-01 1.106451613E-01
 1.106451613E-01 1.106451613E-01 1.106451613E-01 1.106451613E-01 1.106451613E-01
 1.106451613E-01 1.106451613E-01 1.106451613E-01 1.106451613E-01 1.106451613E-01
 1.106451613E-01 1.106451613E-01 1.106451613E-01 1.106451613E-01 1.106451613E-01
 1.106451613E-01 1.106451613E-01 1.106451613E-01 1.106451613E-01 1.106451613E-01
 1.106451613E-01 1.106451613E-01 1.106451613E-01 1.106451613E-01 1.106451613E-01
 1.106451613E-01 1.106451613E-01 1.106451613E-01 1.106451613E-01 1.106451613E-01
 1.106451613E-01 1.106451613E-01 1.106451613E-01 1.106451613E-01 1.106451613E-01
 1.106451613E-01 1.106451613E-01 1.106451613E-01 1.106451613E-01 1.106451613E-01
 1.106451613E-01 1.106451613E-01 1.106451613E-01 1.106451613E-01 1.106451613E-01
 1.106451613E-01 1.106451613E-01 1.106451613E-01 1.106451613E-01 1.106451613E-01
 1.106451613E-01 1.106451613E-01 1.106451613E-01 1.106451613E-01 1.106451613E-01
 1.106451613E-01 1.106451613E-01 1.106451613E-01 1.106451613E-01 1.106451613E-01
 1.106451613E-01 1.106451613E-01 1.106451613E-01 1.106451613E-01 1.106451613E-01
 1.106451613E-01 1.106451613E-01 1.106451613E-01 1.106451613E-01 1.106451613E-01
 1.106451613E-01 1.106451613E-01 1.106451613E-01 1.106451613E-01 1.106451613E-01
 1.106451613E-01 1.106451613E-01 1.106451613E-01 1.106451613E-01 1.106451613E-01
 1.106451613E-01 1.106451613E-01 1.106451613E-01 1.106451613E-01 1.106451613E-01
 1.106451613E-01 1.106451613E-01 1.106451613E-01 1.106451613E-01 1.106451613E-01
 1.106451613E-01 1.106451613E-01 1.106451613E-01 1.106451613E-01 1.106451613E-01
 1.106451613E-01 1.106451613E-01 1.106451613E-01 1.106451613E-01 1.106451613E-01
 1.106451613E-01 1.106451613E-01 1.106451613E-01 1.106451613E-01 1.106451613E-01
 1.106451613E-01 1.106451613E-01 1.106451613E-01 1.106451613E-01 1.106451613E-01
 1.106451613E-01 1.106451613E-01 1.106451613E-01 1.106451613E-01 1.106451613E-01
 1.106451613E-01 1.106451613E-01 1.106451613E-01 1.106451613E-01 1.106451613E-01
 1.106451613E-01 1.106451613E-01 1.106451613E-01 1.106451613E-01 1.106451613E-01
 1.106451613E-01 1.106451613E-01 1.106451613E-01 1.106451613E-01 1.106451613E-01
 1.106451613E-01 1.106451613E-01 1.106451613E-01 1.106451613E-01 1.106451613E-01
 1.106451613E-01 1.106451613E-01 1.106451613E-01 1.106451613E-01 1.106451613E-01
 1.106451613E-01 1.106451613E-01 1.106451613E-01 1.106451613E-01 1.106451613E-01
 1.106451613E-01 1.106451613E-01 1.106451613E-01 1.106451613E-01 1.106451613E-01
 1.106451613E-01
 -3.491225289E+01 -4.834513499E+01 -3.004909345E+01 -2.353504913E+01 -2.087201009E+01
 -1.959183232E+01 -1.873324469E+01 -1.786002255E+01 -1.680725522E+01 -1.559869052E+01
 -1.410795856E+01 -1.251589669E+01 -1.096071020E+01 -9.436296782E+00 -7.952717625E+00
 -6.588731851E+00 -5.383673220E+00 -4.325802289E+00 -3.579967475E+00 -3.148950259E+00
 -2.888182364E+00 -2.759817588E+00 -2.765374781E+00 -2.900855445E+00 -3.137174824E+00
 -3.447111101E+00 -3.838307542E+00 -4.316319199E+00 -4.753847194E+00 -4.967325480E+00
 -5.314931179E+00 -3.513946142E+00 -7.869669624E+00 -1.923029586E+01 -2.924088888E+01
 -3.956239456E+01 -5.010524930E+01 -6.102970372E+01 -7.231755488E+01 -8.384109810E+01
 -9.539854586E+01 -1.069380207E+02 -1.183695023E+02 -1.296563309E+02 -1.410105457E+02
 -1.525473539E+02 -1.643494212E+02 -1.764433439E+02 -1.889113801E+02 -2.016603775E+02
 -2.146780064E+02 -2.276252505E+02 -2.406534321E+02 -2.539260736E+02 -2.669084195E+02
 -2.799375832E+02 -2.936042600E+02 -3.077980793E+02 -3.211438421E+02 -3.332739963E+02
 -3.457113184E+02 -3.586880194E+02 -3.721232411E+02 -3.848451215E+02 -3.964634163E+02
 -4.086726292E+02 -4.213837944E+02 -4.344654470E+02 -4.471577929E+02 -4.597879441E+02
 -4.733331162E+02 -4.886755432E+02 -5.032480632E+02 -5.135707991E+02 -5.249381134E+02
 -5.395960402E+02 -5.561267378E+02 -5.712113931E+02 -5.868145990E+02 -6.034948370E+02
 -6.153159124E+02 -6.273134068E+02 -6.411022668E+02 -6.588858525E+02 -6.824965486E+02
 -7.072097841E+02 -7.262825670E+02 -7.396838552E+02 -7.570665546E+02 -7.738212391E+02
 -7.937474229E+02 -8.166493492E+02 -8.395254804E+02 -8.662141283E+02 -8.884918771E+02
 -9.146238802E+02 -9.362986560E+02 -9.565185859E+02 -9.819627653E+02 -1.009815908E+03
 -1.052189969E+03 -1.093613540E+03 -1.122998485E+03 -1.142913577E+03 -1.180027720E+03
 -1.254889875E+03 -1.335559846E+03 -1.359888332E+03 -1.388032852E+03 -1.463175818E+03
 -1.479681923E+03 -1.499941291E+03 -1.590981953E+03 -1.654263656E+03 -1.616950722E+03
 -1.564677971E+03 -1.603907868E+03 -1.668845238E+03 -1.639046282E+03 -1.532050653E+03
 -1.448024405E+03 -1.363521261E+03 -1.236044730E+03 -1.145280637E+03 -1.058274687E+03
 -7.335294226E+02 -3.127162827E+02 -9.876811414E+01 5.823091639E+01 2.598427099E+02
 3.846716354E+02 4.543549246E+02 5.232853266E+02 5.631643138E+02 5.754498189E+02
 5.766308351E+02 5.695415852E+02 5.559838614E+02 5.403318681E+02 5.258864194E+02
 5.130075191E+02 4.957344455E+02 4.606778509E+02 4.097837314E+02 3.684680390E+02
 3.392814615E+02 3.077132180E+02 2.818562130E+02 2.528544496E+02 2.253126753E+02
 2.069931542E+02 1.820014199E+02 1.669159828E+02 1.532189035E+02 1.328649372E+02
 1.204211395E+02 1.086076498E+02 9.983304903E+01 8.675994743E+01 7.469501672E+01
 6.823203225E+01 5.718907413E+01 5.123307729E+01 4.342845496E+01 3.529186625E+01
 2.543462315E+01 1.584154680E+01 1.028310473E+01 8.210374155E-01 -1.471090732E+00
 -4.252927522E+00 -1.051180161E+01 -1.314136437E+01 -1.803282343E+01 -2.125939887E+01
 -2.475374666E+01 -2.918951830E+01 -2.779617278E+01 -2.783714032E+01 -3.094241595E+01
 -3.602324798E+01 -3.915246342E+01 -3.764754781E+01 -3.708767130E+01 -3.642422231E+01
 -3.720617531E+01 -3.628568376E+01 -3.151548045E+01 -2.825638955E+01 -2.699472895E+01
 -2.606133524E+01 -2.397689375E+01 -2.063753178E+01 -1.594114127E+01 -1.072877645E+01
 -6.020752733E+00 -1.389688846E+00 4.234326655E+00 1.096888059E+01 1.687620996E+01
 2.060021119E+01 2.422741549E+01 3.167392203E+01 4.232849447E+01 5.329530154E+01
 6.212346184E+01 6.627310976E+01 6.511317226E+01 6.071020356E+01 5.486615545E+01
 5.184539173E+01 5.312070780E+01 5.474586802E+01 5.476896552E+01 5.418024559E+01
 5.221309446E+01 4.906773634E+01 4.398105411E+01 3.647641717E+01 1.250639831E+01
 -3.491225289E+01
ZONE T="Slice: Z=0.12129 (region 2)"
 STRANDID=7, SOLUTIONTIME=0