TITLE     = "Fluent Common Fluid Files Data"
VARIABLES = "X"
"Y"
"Z"
"Static Pressure"
DATASETAUXDATA Common.DensityVar="7"
DATASETAUXDATA Common.PressureVar="15"
DATASETAUXDATA Common.TemperatureVar="17"
DATASETAUXDATA Common.TurbulentDynamicViscosityVar="12"
DATASETAUXDATA Common.TurbulentKineticEnergyVar="10"
DATASETAUXDATA Common.UVar="18"
DATASETAUXDATA Common.VectorVarsAreVelocity="True"
DATASETAUXDATA Common.ViscosityVar="11"
DATASETAUXDATA Common.VVar="19"
DATASETAUXDATA Common.WVar="20"
ZONE T="Slice: Z=0.1 (region 2)"
 STRANDID=7, SOLUTIONTIME=0
 I=223, J=1, K=1, ZONETYPE=Ordered
 DATAPACKING=BLOCK
 DT=(DOUBLE DOUBLE DOUBLE DOUBLE )
 2.559605255E+00 2.559597014E+00 2.559588715E+00 2.559580404E+00 2.559572082E+00
 2.559563747E+00 2.559555401E+00 2.559547043E+00 2.559538673E+00 2.559530291E+00
 2.559521862E+00 2.559513370E+00 2.559504861E+00 2.559496338E+00 2.559487630E+00
 2.559476965E+00 2.559466286E+00 2.559455594E+00 2.559444888E+00 2.559434168E+00
 2.559423434E+00 2.559412686E+00 2.559401925E+00 2.559391149E+00 2.559380358E+00
 2.559369553E+00 2.559358734E+00 2.559347900E+00 2.559337053E+00 2.559326192E+00
 2.559315316E+00 2.559303055E+00 2.557579427E+00 2.555821620E+00 2.554079477E+00
 2.552335100E+00 2.550593446E+00 2.548853066E+00 2.547115790E+00 2.545380748E+00
 2.543647168E+00 2.541916399E+00 2.540186108E+00 2.538460589E+00 2.536736683E+00
 2.535014303E+00 2.533294404E+00 2.531577402E+00 2.529863294E+00 2.528148800E+00
 2.526436767E+00 2.524725806E+00 2.523017035E+00 2.521308524E+00 2.519598705E+00
 2.517888813E+00 2.516179089E+00 2.514469816E+00 2.512760798E+00 2.511051564E+00
 2.509341298E+00 2.507629510E+00 2.505917953E+00 2.504208663E+00 2.502497853E+00
 2.500784526E+00 2.499070408E+00 2.497357425E+00 2.495648669E+00 2.493937192E+00
 2.492221007E+00 2.490504985E+00 2.488794671E+00 2.487090178E+00 2.485381372E+00
 2.483671517E+00 2.483666188E+00 2.481947734E+00 2.480237352E+00 2.478530502E+00
 2.476823133E+00 2.475121183E+00 2.473411001E+00 2.471699213E+00 2.469986543E+00
 2.468272207E+00 2.466570051E+00 2.464878384E+00 2.463189110E+00 2.461486994E+00
 2.459788807E+00 2.458089653E+00 2.456393033E+00 2.454699843E+00 2.453005516E+00
 2.451321606E+00 2.449628853E+00 2.447948503E+00 2.446263181E+00 2.444574914E+00
 2.442887716E+00 2.441199906E+00 2.439520423E+00 2.437852319E+00 2.436177578E+00
 2.434494005E+00 2.432811409E+00 2.431142629E+00 2.429493608E+00 2.427839686E+00
 2.426203699E+00 2.424584659E+00 2.423960659E+00 2.423332097E+00 2.422705080E+00
 2.422087567E+00 2.421495754E+00 2.420919435E+00 2.420348749E+00 2.419792536E+00
 2.419281504E+00 2.418814029E+00 2.418384430E+00 2.418023156E+00 2.417744834E+00
 2.417516751E+00 2.417448011E+00 2.417695354E+00 2.417955250E+00 2.418244913E+00
 2.418740953E+00 2.419250175E+00 2.419730892E+00 2.420319169E+00 2.420951202E+00
 2.421553622E+00 2.422132616E+00 2.422733711E+00 2.423375524E+00 2.424053191E+00
 2.424752804E+00 2.425460998E+00 2.426169539E+00 2.427786633E+00 2.429404889E+00
 2.431053025E+00 2.432715676E+00 2.434386314E+00 2.436073579E+00 2.437758781E+00
 2.439453335E+00 2.441157014E+00 2.442859854E+00 2.444573363E+00 2.446287654E+00
 2.448005462E+00 2.449726927E+00 2.451453076E+00 2.453182762E+00 2.454909454E+00
 2.456641804E+00 2.458373924E+00 2.460108835E+00 2.461841900E+00 2.463576557E+00
 2.465312926E+00 2.467050986E+00 2.468785515E+00 2.470524667E+00 2.472258226E+00
 2.473987046E+00 2.475718253E+00 2.477447528E+00 2.479171110E+00 2.480897378E+00
 2.482616845E+00 2.484337353E+00 2.486057496E+00 2.487767527E+00 2.489478233E+00
 2.491179488E+00 2.492881001E+00 2.494577079E+00 2.496267478E+00 2.497956658E+00
 2.499635407E+00 2.501313137E+00 2.502985468E+00 2.504650094E+00 2.506308957E+00
 2.507961070E+00 2.509609974E+00 2.511251273E+00 2.512889677E+00 2.514523094E+00
 2.516148882E+00 2.517772845E+00 2.519396064E+00 2.521011028E+00 2.522623902E+00
 2.524234676E+00 2.525844544E+00 2.527452570E+00 2.529059201E+00 2.529198527E+00
 2.530663465E+00 2.532272273E+00 2.533903265E+00 2.535532877E+00 2.537174411E+00
 2.538826372E+00 2.540487035E+00 2.542160644E+00 2.543849255E+00 2.545553734E+00
 2.547271167E+00 2.548994104E+00 2.550736704E+00 2.552485974E+00 2.554250360E+00
 2.556033100E+00 2.557810291E+00 2.559605255E+00
 1.501281756E+00 1.501215362E+00 1.501148994E+00 1.501082649E+00 1.501016326E+00
 1.500950025E+00 1.500883748E+00 1.500817492E+00 1.500751260E+00 1.500685050E+00
 1.500618862E+00 1.500552698E+00 1.500486556E+00 1.500420438E+00 1.500354319E+00
 1.500287960E+00 1.500221626E+00 1.500155318E+00 1.500089035E+00 1.500022778E+00
 1.499956547E+00 1.499890341E+00 1.499824161E+00 1.499758007E+00 1.499691879E+00
 1.499625777E+00 1.499559700E+00 1.499493650E+00 1.499427626E+00 1.499361627E+00
 1.499295655E+00 1.499229547E+00 1.498814974E+00 1.498547142E+00 1.498273075E+00
 1.498017608E+00 1.497767185E+00 1.497519814E+00 1.497280923E+00 1.497055694E+00
 1.496831299E+00 1.496609928E+00 1.496390044E+00 1.496184383E+00 1.495990150E+00
 1.495802538E+00 1.495619629E+00 1.495440630E+00 1.495266770E+00 1.495085731E+00
 1.494917464E+00 1.494763363E+00 1.494629201E+00 1.494491645E+00 1.494358131E+00
 1.494229262E+00 1.494101364E+00 1.493977796E+00 1.493862627E+00 1.493769760E+00
 1.493678989E+00 1.493568774E+00 1.493467279E+00 1.493371316E+00 1.493277578E+00
 1.493196727E+00 1.493112934E+00 1.493039832E+00 1.492964149E+00 1.492885097E+00
 1.492812355E+00 1.492737337E+00 1.492671405E+00 1.492627418E+00 1.492610256E+00
 1.492579345E+00 1.492579223E+00 1.492532984E+00 1.492489776E+00 1.492461203E+00
 1.492432225E+00 1.492413140E+00 1.492394340E+00 1.492389818E+00 1.492391358E+00
 1.492396322E+00 1.492406584E+00 1.492420317E+00 1.492451805E+00 1.492485933E+00
 1.492543338E+00 1.492606829E+00 1.492679972E+00 1.492759810E+00 1.492847881E+00
 1.492944848E+00 1.493054099E+00 1.493177583E+00 1.493315283E+00 1.493476109E+00
 1.493640294E+00 1.493835354E+00 1.494032110E+00 1.494259767E+00 1.494501175E+00
 1.494774417E+00 1.495072066E+00 1.495392952E+00 1.495761691E+00 1.496203559E+00
 1.496697682E+00 1.497255268E+00 1.497505294E+00 1.497747990E+00 1.498004483E+00
 1.498297427E+00 1.498631994E+00 1.498978110E+00 1.499340435E+00 1.499751535E+00
 1.500220373E+00 1.500719248E+00 1.501251986E+00 1.501839246E+00 1.502476070E+00
 1.503162004E+00 1.503937742E+00 1.504714622E+00 1.505402713E+00 1.506078663E+00
 1.506706584E+00 1.507254822E+00 1.507798510E+00 1.508279031E+00 1.508679812E+00
 1.509096807E+00 1.509536107E+00 1.509949351E+00 1.510306087E+00 1.510611254E+00
 1.510888235E+00 1.511156951E+00 1.511425482E+00 1.511971657E+00 1.512501691E+00
 1.512928705E+00 1.513312065E+00 1.513658244E+00 1.513964513E+00 1.514244365E+00
 1.514489489E+00 1.514708833E+00 1.514898887E+00 1.515055029E+00 1.515202344E+00
 1.515329589E+00 1.515432234E+00 1.515525226E+00 1.515596276E+00 1.515659011E+00
 1.515700219E+00 1.515727987E+00 1.515749222E+00 1.515740265E+00 1.515736629E+00
 1.515723427E+00 1.515713296E+00 1.515663970E+00 1.515624139E+00 1.515550966E+00
 1.515442888E+00 1.515342383E+00 1.515225629E+00 1.515088493E+00 1.514954853E+00
 1.514797347E+00 1.514639170E+00 1.514472134E+00 1.514278762E+00 1.514090518E+00
 1.513875008E+00 1.513655635E+00 1.513417668E+00 1.513165987E+00 1.512912121E+00
 1.512632801E+00 1.512348382E+00 1.512052371E+00 1.511739719E+00 1.511421065E+00
 1.511087389E+00 1.510746546E+00 1.510390456E+00 1.510030432E+00 1.509661711E+00
 1.509278442E+00 1.508893478E+00 1.508509104E+00 1.508108119E+00 1.507703128E+00
 1.507296400E+00 1.506890984E+00 1.506485007E+00 1.506071219E+00 1.506036065E+00
 1.505646926E+00 1.505216764E+00 1.504817408E+00 1.504435827E+00 1.504087170E+00
 1.503761581E+00 1.503458699E+00 1.503163968E+00 1.502880159E+00 1.502622225E+00
 1.502390138E+00 1.502161980E+00 1.501973554E+00 1.501796112E+00 1.501646372E+00
 1.501527665E+00 1.501423597E+00 1.501281756E+00
 1.000000000E-01 1.000000000E-01 1.000000000E-01 1.000000000E-01 1.000000000E-01
 1.000000000E-01 1.000000000E-01 1.000000000E-01 1.000000000E-01 1.000000000E-01
 1.000000000E-01 1.000000000E-01 1.000000000E-01 1.000000000E-01 1.000000000E-01
 1.000000000E-01 1.000000000E-01 1.000000000E-01 1.000000000E-01 1.000000000E-01
 1.000000000E-01 1.000000000E-01 1.000000000E-01 1.000000000E-01 1.000000000E-01
 1.000000000E-01 1.000000000E-01 1.000000000E-01 1.000000000E-01 1.000000000E-01
 1.000000000E-01 1.000000000E-01 1.000000000E-01 1.000000000E-01 1.000000000E-01
 1.000000000E-01 1.000000000E-01 1.000000000E-01 1.000000000E-01 1.000000000E-01
 1.000000000E-01 1.000000000E-01 1.000000000E-01 1.000000000E-01 1.000000000E-01
 1.000000000E-01 1.000000000E-01 1.000000000E-01 1.000000000E-01 1.000000000E-01
 1.000000000E-01 1.000000000E-01 1.000000000E-01 1.000000000E-01 1.000000000E-01
 1.000000000E-01 1.000000000E-01 1.000000000E-01 1.000000000E-01 1.000000000E-01
 1.000000000E-01 1.000000000E-01 1.000000000E-01 1.000000000E-01 1.000000000E-01
 1.000000000E-01 1.000000000E-01 1.000000000E-01 1.000000000E-01 1.000000000E-01
 1.000000000E-01 1.000000000E-01 1.000000000E-01 1.000000000E-01 1.000000000E-01
 1.000000000E-01 1.000000000E-01 1.000000000E-01 1.000000000E-01 1.000000000E-01
 1.000000000E-01 1.000000000E-01 1.000000000E-01 1.000000000E-01 1.000000000E-01
 1.000000000E-01 1.000000000E-01 1.000000000E-01 1.000000000E-01 1.000000000E-01
 1.000000000E-01 1.000000000E-01 1.000000000E-01 1.000000000E-01 1.000000000E-01
 1.000000000E-01 1.000000000E-01 1.000000000E-01 1.000000000E-01 1.000000000E-01
 1.000000000E-01 1.000000000E-01 1.000000000E-01 1.000000000E-01 1.000000000E-01
 1.000000000E-01 1.000000000E-01 1.000000000E-01 1.000000000E-01 1.000000000E-01
 1.000000000E-01 1.000000000E-01 1.000000000E-01 1.000000000E-01 1.000000000E-01
 1.000000000E-01 1.000000000E-01 1.000000000E-01 1.000000000E-01 1.000000000E-01
 1.000000000E-01 1.000000000E-01 1.000000000E-01 1.000000000E-01 1.000000000E-01
 1.000000000E-01 1.000000000E-01 1.000000000E-01 1.000000000E-01 1.000000000E-01
 1.000000000E-01 1.000000000E-01 1.000000000E-01 1.000000000E-01 1.000000000E-01
 1.000000000E-01 1.000000000E-01 1.000000000E-01 1.000000000E-01 1.000000000E-01
 1.000000000E-01 1.000000000E-01 1.000000000E-01 1.000000000E-01 1.000000000E-01
 1.000000000E-01 1.000000000E-01 1.000000000E-01 1.000000000E-01 1.000000000E-01
 1.000000000E-01 1.000000000E-01 1.000000000E-01 1.000000000E-01 1.000000000E-01
 1.000000000E-01 1.000000000E-01 1.000000000E-01 1.000000000E-01 1.000000000E-01
 1.000000000E-01 1.000000000E-01 1.000000000E-01 1.000000000E-01 1.000000000E-01
 1.000000000E-01 1.000000000E-01 1.000000000E-01 1.000000000E-01 1.000000000E-01
 1.000000000E-01 1.000000000E-01 1.000000000E-01 1.000000000E-01 1.000000000E-01
 1.000000000E-01 1.000000000E-01 1.000000000E-01 1.000000000E-01 1.000000000E-01
 1.000000000E-01 1.000000000E-01 1.000000000E-01 1.000000000E-01 1.000000000E-01
 1.000000000E-01 1.000000000E-01 1.000000000E-01 1.000000000E-01 1.000000000E-01
 1.000000000E-01 1.000000000E-01 1.000000000E-01 1.000000000E-01 1.000000000E-01
 1.000000000E-01 1.000000000E-01 1.000000000E-01 1.000000000E-01 1.000000000E-01
 1.000000000E-01 1.000000000E-01 1.000000000E-01 1.000000000E-01 1.000000000E-01
 1.000000000E-01 1.000000000E-01 1.000000000E-01 1.000000000E-01 1.000000000E-01
 1.000000000E-01 1.000000000E-01 1.000000000E-01 1.000000000E-01 1.000000000E-01
 1.000000000E-01 1.000000000E-01 1.000000000E-01 1.000000000E-01 1.000000000E-01
 1.000000000E-01 1.000000000E-01 1.000000000E-01
 -5.695053441E+01 -5.884663299E+01 -5.395291581E+01 -5.240711655E+01 -5.155960541E+01
 -5.104434926E+01 -5.060782021E+01 -5.017044014E+01 -4.973351989E+01 -4.931439725E+01
 -4.893248254E+01 -4.870299974E+01 -4.885876430E+01 -4.943456728E+01 -5.053347219E+01
 -5.126004509E+01 -5.134466699E+01 -5.160577293E+01 -5.197349329E+01 -5.237228968E+01
 -5.270452060E+01 -5.283310265E+01 -5.283994138E+01 -5.311781172E+01 -5.346669343E+01
 -5.366568712E+01 -5.383779758E+01 -5.396065967E+01 -5.393265468E+01 -5.411080780E+01
 -5.509808193E+01 -5.773531679E+01 -6.130710082E+01 -6.474385935E+01 -6.748249874E+01
 -6.964414089E+01 -7.260571607E+01 -7.658536905E+01 -8.146376913E+01 -8.731489761E+01
 -9.408841660E+01 -1.013847287E+02 -1.086412090E+02 -1.152692602E+02 -1.213118736E+02
 -1.270243698E+02 -1.326543454E+02 -1.385988016E+02 -1.456226895E+02 -1.539057667E+02
 -1.625295819E+02 -1.705398341E+02 -1.782446855E+02 -1.859827322E+02 -1.929684364E+02
 -1.998658433E+02 -2.073799701E+02 -2.151174846E+02 -2.211411981E+02 -2.255466343E+02
 -2.317302676E+02 -2.389745662E+02 -2.460296161E+02 -2.529145340E+02 -2.588779810E+02
 -2.653250117E+02 -2.721232598E+02 -2.786489909E+02 -2.853448674E+02 -2.919395468E+02
 -2.997348796E+02 -3.092730657E+02 -3.172467745E+02 -3.195396623E+02 -3.216031007E+02
 -3.286796507E+02 -3.287016787E+02 -3.379918916E+02 -3.449146692E+02 -3.510592157E+02
 -3.578803068E+02 -3.639343494E+02 -3.704697788E+02 -3.765668496E+02 -3.847516909E+02
 -3.955175629E+02 -4.060818869E+02 -4.134501513E+02 -4.198675608E+02 -4.268266535E+02
 -4.317855124E+02 -4.384598916E+02 -4.460490552E+02 -4.543453666E+02 -4.644330056E+02
 -4.733593263E+02 -4.830898370E+02 -4.908661835E+02 -4.959128272E+02 -5.041851669E+02
 -5.116872578E+02 -5.225018229E+02 -5.329329162E+02 -5.384940993E+02 -5.445929635E+02
 -5.574099874E+02 -5.831059024E+02 -6.042682313E+02 -6.050951165E+02 -6.142631916E+02
 -6.388237287E+02 -6.329886516E+02 -6.358593737E+02 -6.759063862E+02 -6.981762880E+02
 -6.745826157E+02 -6.439891524E+02 -6.544613180E+02 -6.742095729E+02 -6.463289441E+02
 -5.871551454E+02 -5.487941369E+02 -4.961475862E+02 -3.867115509E+02 -2.996857378E+02
 -2.210754492E+02 -1.570383040E+00 2.215772927E+02 3.139716494E+02 3.681281799E+02
 3.977479943E+02 4.005840076E+02 3.875951151E+02 3.611770995E+02 3.419323048E+02
 3.284939548E+02 2.956395795E+02 2.459170044E+02 2.014599463E+02 1.763287989E+02
 1.672342051E+02 1.611281809E+02 1.439316555E+02 1.166466393E+02 7.872458325E+01
 4.725833054E+01 3.279365685E+01 1.706249154E+01 4.413714054E+00 -8.689796016E+00
 -2.200302577E+01 -3.046210905E+01 -4.100099622E+01 -4.688935564E+01 -5.235197763E+01
 -6.200592567E+01 -6.881412323E+01 -7.493563421E+01 -7.958514671E+01 -8.553022041E+01
 -9.106551245E+01 -9.481773255E+01 -1.006430259E+02 -1.031206396E+02 -1.062781926E+02
 -1.117076390E+02 -1.198273403E+02 -1.262598429E+02 -1.308518030E+02 -1.374180923E+02
 -1.351036020E+02 -1.322254178E+02 -1.343427736E+02 -1.331772549E+02 -1.331868229E+02
 -1.334982548E+02 -1.327867445E+02 -1.340503808E+02 -1.318298387E+02 -1.292118357E+02
 -1.272388175E+02 -1.240986349E+02 -1.209228553E+02 -1.155163357E+02 -1.110520912E+02
 -1.062312191E+02 -1.002740331E+02 -9.516413768E+01 -8.857038032E+01 -8.190803480E+01
 -7.590710810E+01 -6.995077023E+01 -6.355153825E+01 -5.711906632E+01 -5.147845901E+01
 -4.540373227E+01 -3.950721271E+01 -3.466211237E+01 -2.976729755E+01 -2.500331368E+01
 -2.147666695E+01 -1.855330734E+01 -1.669144689E+01 -1.507995265E+01 -1.488149924E+01
 -1.305542303E+01 -9.871481869E+00 -7.119607660E+00 -6.237298858E+00 -6.511330894E+00
 -8.742296819E+00 -1.348368523E+01 -1.910041219E+01 -2.412300540E+01 -2.907446793E+01
 -3.442530470E+01 -3.835068869E+01 -4.147237238E+01 -4.422296185E+01 -4.590377464E+01
 -4.726803621E+01 -4.939079893E+01 -5.695053441E+01
ZONE T="Slice: Z=0.110645 (region 2)"
 STRANDID=7, SOLUTIONTIME=0
 I=221, J=1, K=1, ZONETYPE=Ordered
 DATAPACKING=BLOCK
 DT=(DOUBLE DOUBLE DOUBLE DOUBLE )
 2.566367336E+00 2.566367349E+00 2.566367349E+00 2.566367349E+00 2.566367349E+00
 2.566367349E+00 2.566367349E+00 2.566367349E+00 2.566367349E+00 2.566367349E+00
 2.566367349E+00 2.566367349E+00 2.566367349E+00 2.566367349E+00 2.566367349E+00
 2.566367349E+00 2.566367349E+00 2.566367349E+00 2.566367349E+00 2.566367350E+00
 2.566367350E+00 2.566367350E+00 2.566367350E+00 2.566367350E+00 2.566367350E+00
 2.566367350E+00 2.566367350E+00 2.566367350E+00 2.566367350E+00 2.566367350E+00
 2.566367350E+00 2.566367336E+00 2.564685045E+00 2.562963497E+00 2.561250379E+00
 2.559533624E+00 2.557817090E+00 2.556100555E+00 2.554383976E+00 2.552667375E+00
 2.550950819E+00 2.549234264E+00 2.547517714E+00 2.545801170E+00 2.544084627E+00
 2.542368106E+00 2.540651596E+00 2.538935085E+00 2.537218571E+00 2.535502018E+00
 2.533785512E+00 2.532069047E+00 2.530352581E+00 2.528636116E+00 2.526919225E+00
 2.525201334E+00 2.523483449E+00 2.521765563E+00 2.520047678E+00 2.518328109E+00
 2.516607488E+00 2.514886865E+00 2.513166242E+00 2.511445609E+00 2.509722340E+00
 2.507998822E+00 2.506275303E+00 2.504551784E+00 2.502827618E+00 2.501101323E+00
 2.499375028E+00 2.497648691E+00 2.495922352E+00 2.494194401E+00 2.492465179E+00
 2.490735956E+00 2.489006705E+00 2.487277454E+00 2.485546874E+00 2.483816057E+00
 2.482084351E+00 2.480351930E+00 2.478619456E+00 2.476886704E+00 2.475154133E+00
 2.473421423E+00 2.471688333E+00 2.469955135E+00 2.468222211E+00 2.466489359E+00
 2.464757175E+00 2.463024989E+00 2.461293922E+00 2.459563314E+00 2.457834092E+00
 2.456107229E+00 2.454380849E+00 2.452660103E+00 2.450939459E+00 2.449223687E+00
 2.447509911E+00 2.445799427E+00 2.444096901E+00 2.442404428E+00 2.440722931E+00
 2.439044479E+00 2.437375212E+00 2.435726861E+00 2.434126035E+00 2.432526637E+00
 2.430970803E+00 2.430320046E+00 2.429665905E+00 2.429016842E+00 2.428391498E+00
 2.427799131E+00 2.427220966E+00 2.426646771E+00 2.426101520E+00 2.425614301E+00
 2.425173154E+00 2.424768287E+00 2.424415475E+00 2.424120984E+00 2.423894189E+00
 2.423785535E+00 2.423840283E+00 2.423991711E+00 2.424126609E+00 2.424377379E+00
 2.424748681E+00 2.425097460E+00 2.425535214E+00 2.426078284E+00 2.426623898E+00
 2.427137556E+00 2.427676664E+00 2.428276023E+00 2.428925123E+00 2.429600744E+00
 2.430285740E+00 2.430970803E+00 2.432549704E+00 2.434153880E+00 2.435804177E+00
 2.437473755E+00 2.439157806E+00 2.440858437E+00 2.442559332E+00 2.444275020E+00
 2.445995116E+00 2.447719090E+00 2.449450239E+00 2.451181378E+00 2.452916434E+00
 2.454653290E+00 2.456391648E+00 2.458130876E+00 2.459870159E+00 2.461610193E+00
 2.463350227E+00 2.465090081E+00 2.466829619E+00 2.468569037E+00 2.470307686E+00
 2.472046324E+00 2.473783564E+00 2.475520270E+00 2.477256192E+00 2.478990426E+00
 2.480724637E+00 2.482456874E+00 2.484188892E+00 2.485919795E+00 2.487649485E+00
 2.489378836E+00 2.491104847E+00 2.492830744E+00 2.494556635E+00 2.496282526E+00
 2.498007509E+00 2.499729527E+00 2.501451432E+00 2.503171191E+00 2.504890514E+00
 2.506608492E+00 2.508324301E+00 2.510040075E+00 2.511755849E+00 2.513471621E+00
 2.515185669E+00 2.516898366E+00 2.518610512E+00 2.520320451E+00 2.522030393E+00
 2.523738434E+00 2.525445688E+00 2.527152737E+00 2.528859445E+00 2.530566170E+00
 2.532273213E+00 2.533977758E+00 2.535679168E+00 2.537378437E+00 2.539078129E+00
 2.540783007E+00 2.542492363E+00 2.544203230E+00 2.545914432E+00 2.547624752E+00
 2.549331445E+00 2.551037382E+00 2.552743309E+00 2.554449277E+00 2.556155495E+00
 2.557862010E+00 2.559567753E+00 2.561274182E+00 2.562978589E+00 2.564688336E+00
 2.566367336E+00
 1.504743454E+00 1.504662721E+00 1.504581988E+00 1.504501256E+00 1.504420523E+00
 1.504339791E+00 1.504259058E+00 1.504178326E+00 1.504097593E+00 1.504016861E+00
 1.503936128E+00 1.503855396E+00 1.503774663E+00 1.503693931E+00 1.503613198E+00
 1.503532466E+00 1.503451734E+00 1.503371001E+00 1.503290269E+00 1.503209536E+00
 1.503128804E+00 1.503048071E+00 1.502967339E+00 1.502886606E+00 1.502805874E+00
 1.502725141E+00 1.502644409E+00 1.502563676E+00 1.502482944E+00 1.502402211E+00
 1.502321479E+00 1.502240746E+00 1.501824920E+00 1.501603280E+00 1.501355493E+00
 1.501117087E+00 1.500877151E+00 1.500637219E+00 1.500397567E+00 1.500158066E+00
 1.499918284E+00 1.499678501E+00 1.499438678E+00 1.499198812E+00 1.498958942E+00
 1.498718914E+00 1.498478810E+00 1.498238706E+00 1.497998622E+00 1.497758776E+00
 1.497518600E+00 1.497278171E+00 1.497037743E+00 1.496797314E+00 1.496559942E+00
 1.496329911E+00 1.496099845E+00 1.495869779E+00 1.495639713E+00 1.495422580E+00
 1.495213962E+00 1.495005352E+00 1.494796742E+00 1.494588208E+00 1.494402728E+00
 1.494219573E+00 1.494036419E+00 1.493853264E+00 1.493676322E+00 1.493521518E+00
 1.493366718E+00 1.493212356E+00 1.493058015E+00 1.492922926E+00 1.492805219E+00
 1.492687511E+00 1.492570253E+00 1.492453000E+00 1.492357307E+00 1.492266040E+00
 1.492193440E+00 1.492140745E+00 1.492089895E+00 1.492049469E+00 1.492001888E+00
 1.491959856E+00 1.491938163E+00 1.491947328E+00 1.491979625E+00 1.492015102E+00
 1.492075062E+00 1.492134996E+00 1.492221648E+00 1.492316871E+00 1.492434564E+00
 1.492583192E+00 1.492736724E+00 1.492944546E+00 1.493152851E+00 1.493398185E+00
 1.493657234E+00 1.493936935E+00 1.494261687E+00 1.494635275E+00 1.495055588E+00
 1.495487826E+00 1.495954342E+00 1.496489990E+00 1.497154385E+00 1.497822199E+00
 1.498586061E+00 1.498960838E+00 1.499329673E+00 1.499707379E+00 1.500123167E+00
 1.500584730E+00 1.501063964E+00 1.501547950E+00 1.502064324E+00 1.502635771E+00
 1.503243485E+00 1.503875978E+00 1.504538895E+00 1.505229709E+00 1.505945631E+00
 1.506688694E+00 1.507437638E+00 1.508173160E+00 1.508911922E+00 1.509619774E+00
 1.510272502E+00 1.510937044E+00 1.511548307E+00 1.512066479E+00 1.512582781E+00
 1.513130487E+00 1.513653860E+00 1.514106043E+00 1.514482838E+00 1.514810396E+00
 1.515118181E+00 1.515425709E+00 1.516156908E+00 1.516831258E+00 1.517382852E+00
 1.517873152E+00 1.518310975E+00 1.518679197E+00 1.519046586E+00 1.519336941E+00
 1.519599778E+00 1.519835921E+00 1.520012121E+00 1.520188321E+00 1.520319511E+00
 1.520425059E+00 1.520502574E+00 1.520557542E+00 1.520610444E+00 1.520615064E+00
 1.520619247E+00 1.520597396E+00 1.520559154E+00 1.520514248E+00 1.520441781E+00
 1.520369166E+00 1.520269453E+00 1.520161294E+00 1.520041838E+00 1.519901021E+00
 1.519760013E+00 1.519596555E+00 1.519430953E+00 1.519251912E+00 1.519059643E+00
 1.518864675E+00 1.518643765E+00 1.518422256E+00 1.518200721E+00 1.517979186E+00
 1.517750316E+00 1.517499229E+00 1.517247624E+00 1.516983157E+00 1.516716123E+00
 1.516439936E+00 1.516150087E+00 1.515860094E+00 1.515570102E+00 1.515280110E+00
 1.514979756E+00 1.514671594E+00 1.514360823E+00 1.514038947E+00 1.513717071E+00
 1.513386593E+00 1.513052671E+00 1.512717080E+00 1.512378200E+00 1.512039381E+00
 1.511698637E+00 1.511346143E+00 1.510981089E+00 1.510608138E+00 1.510236760E+00
 1.509887671E+00 1.509561866E+00 1.509244387E+00 1.508928915E+00 1.508608652E+00
 1.508269342E+00 1.507926364E+00 1.507583544E+00 1.507240927E+00 1.506899739E+00
 1.506560111E+00 1.506214876E+00 1.505874318E+00 1.505524975E+00 1.505199044E+00
 1.504743454E+00
 1.106451613E-01 1.106451613E-01 1.106451613E-01 1.106451613E-01 1.106451613E-01
 1.106451613E-01 1.106451613E-01 1.106451613E-01 1.106451613E-01 1.106451613E-01
 1.106451613E-01 1.106451613E-01 1.106451613E-01 1.106451613E-01 1.106451613E-01
 1.106451613E-01 1.106451613E-01 1.106451613E-01 1.106451613E-01 1.106451613E-01
 1.106451613E-01 1.106451613E-01 1.106451613E-01 1.106451613E-01 1.106451613E-01
 1.106451613E-01 1.106451613E-01 1.106451613E-01 1.106451613E-01 1.106451613E-01
 1.106451613E-01 1.106451613E-01 1.106451613E-01 1.106451613E-01 1.106451613E-01
 1.106451613E-01 1.106451613E-01 1.106451613E-01 1.106451613E-01 1.106451613E-01
 1.106451613E-01 1.106451613E-01 1.106451613E-01 1.106451613E-01 1.106451613E-01
 1.106451613E-01 1.106451613E-01 1.106451613E-01 1.106451613E-01 1.106451613E-01
 1.106451613E-01 1.106451613E-01 1.106451613E-01 1.106451613E-01 1.106451613E-01
 1.106451613E-01 1.106451613E-01 1.106451613E-01 1.106451613E-01 1.106451613E-01
 1.106451613E-01 1.106451613E-01 1.106451613E-01 1.106451613E-01 1.106451613E-01
 1.106451613E-01 1.106451613E-01 1.106451613E-01 1.106451613E-01 1.106451613E-01
 1.106451613E-01 1.106451613E-01 1.106451613E-01 1.106451613E-01 1.106451613E-01
 1.106451613E-01 1.106451613E-01 1.106451613E-01 1.106451613E-01 1.106451613E-01
 1.106451613E-01 1.106451613E-01 1.106451613E-01 1.106451613E-01 1.106451613E-01
 1.106451613E-01 1.106451613E-01 1.106451613E-01 1.106451613E-01 1.106451613E-01
 1.106451613E-01 1.106451613E-01 1.106451613E-01 1.106451613E-01 1.106451613E-01
 1.106451613E-01 1.106451613E-01 1.106451613E-01 1.106451613E-01 1.106451613E-01
 1.106451613E-01 1.106451613E-01 1.106451613E-01 1.106451613E-01 1.106451613E-01
 1.106451613E-01 1.106451613E-01 1.106451613E-01 1.106451613E-01 1.106451613E-01
 1.106451613E-01 1.106451613E-01 1.106451613E-01 1.106451613E-01 1.106451613E-01
 1.106451613E-01 1.106451613E-01 1.106451613E-01 1.106451613E-01 1.106451613E-01
 1.106451613E-01 1.106451613E-01 1.106451613E-01 1.106451613E-01 1.106451613E-01
 1.106451613E-01 1.106451613E-01 1.106451613E-01 1.106451613E-01 1.106451613E-01
 1.106451613E-01 1.106451613E-01 1.106451613E-01 1.106451613E-01 1.106451613E-01
 1.106451613E-01 1.106451613E-01 1.106451613E-01 1.106451613E-01 1.106451613E-01
 1.106451613E-01 1.106451613E-01 1.106451613E-01 1.106451613E-01 1.106451613E-01
 1.106451613E-01 1.106451613E-01 1.106451613E-01 1.106451613E-01 1.106451613E-01
 1.106451613E-01 1.106451613E-01 1.106451613E-01 1.106451613E-01 1.106451613E-01
 1.106451613E-01 1.106451613E-01 1.106451613E-01 1.106451613E-01 1.106451613E-01
 1.106451613E-01 1.106451613E-01 1.106451613E-01 1.106451613E-01 1.106451613E-01
 1.106451613E-01 1.106451613E-01 1.106451613E-01 1.106451613E-01 1.106451613E-01
 1.106451613E-01 1.106451613E-01 1.106451613E-01 1.106451613E-01 1.106451613E-01
 1.106451613E-01 1.106451613E-01 1.106451613E-01 1.106451613E-01 1.106451613E-01
 1.106451613E-01 1.106451613E-01 1.106451613E-01 1.106451613E-01 1.106451613E-01
 1.106451613E-01 1.106451613E-01 1.106451613E-01 1.106451613E-01 1.106451613E-01
 1.106451613E-01 1.106451613E-01 1.106451613E-01 1.106451613E-01 1.106451613E-01
 1.106451613E-01 1.106451613E-01 1.106451613E-01 1.106451613E-01 1.106451613E-01
 1.106451613E-01 1.106451613E-01 1.106451613E-01 1.106451613E-01 1.106451613E-01
 1.106451613E-01 1.106451613E-01 1.106451613E-01 1.106451613E-01 1.106451613E-01
 1.106451613E-01 1.106451613E-01 1.106451613E-01 1.106451613E-01 1.106451613E-01
 1.106451613E-01 1.106451613E-01 1.106451613E-01 1.106451613E-01 1.106451613E-01
 1.106451613E-01
 -4.393525155E+01 -4.143442171E+01 -3.861949291E+01 -3.680540785E+01 -3.562927482E+01
 -3.506890934E+01 -3.469420142E+01 -3.431564327E+01 -3.387177046E+01 -3.337413190E+01
 -3.285221296E+01 -3.238390028E+01 -3.224616651E+01 -3.252970416E+01 -3.336869896E+01
 -3.386052010E+01 -3.370753157E+01 -3.376264901E+01 -3.399255818E+01 -3.432554610E+01
 -3.472422724E+01 -3.518223643E+01 -3.553352021E+01 -3.615405451E+01 -3.665066318E+01
 -3.690879673E+01 -3.744128963E+01 -3.781704489E+01 -3.793299828E+01 -3.828355805E+01
 -3.968059047E+01 -4.225960247E+01 -4.239921256E+01 -4.302027409E+01 -4.601939714E+01
 -4.864095490E+01 -5.230672871E+01 -5.678369585E+01 -6.211568840E+01 -6.822860129E+01
 -7.446829659E+01 -8.043175706E+01 -8.602201901E+01 -9.120138633E+01 -9.630140493E+01
 -1.015760837E+02 -1.071842221E+02 -1.132022486E+02 -1.195906045E+02 -1.267451182E+02
 -1.349800974E+02 -1.428798302E+02 -1.505177222E+02 -1.581811076E+02 -1.650672888E+02
 -1.724383764E+02 -1.808459465E+02 -1.897937128E+02 -1.966999882E+02 -2.018520112E+02
 -2.087900795E+02 -2.170286623E+02 -2.261980666E+02 -2.334404175E+02 -2.388796455E+02
 -2.464105031E+02 -2.549872219E+02 -2.637272431E+02 -2.707346006E+02 -2.773545111E+02
 -2.857345355E+02 -2.956406888E+02 -3.044547903E+02 -3.083348812E+02 -3.131709942E+02
 -3.214973807E+02 -3.321131061E+02 -3.407823767E+02 -3.488077131E+02 -3.579152443E+02
 -3.624145153E+02 -3.670073172E+02 -3.731177726E+02 -3.836156378E+02 -3.995724113E+02
 -4.147672958E+02 -4.233280596E+02 -4.274066526E+02 -4.346438754E+02 -4.401187172E+02
 -4.483661085E+02 -4.586094035E+02 -4.681103281E+02 -4.794644175E+02 -4.871275305E+02
 -4.980767619E+02 -5.028993784E+02 -5.057416886E+02 -5.128343610E+02 -5.195779991E+02
 -5.354922187E+02 -5.482045761E+02 -5.504172313E+02 -5.456724787E+02 -5.512250885E+02
 -5.795154373E+02 -6.031627795E+02 -5.827407201E+02 -5.679819734E+02 -5.801292563E+02
 -5.479688114E+02 -5.288855898E+02 -5.599349115E+02 -5.739619624E+02 -5.366429405E+02
 -4.818607874E+02 -4.703706095E+02 -4.769129198E+02 -4.379959097E+02 -3.652043656E+02
 -3.018112038E+02 -2.373183879E+02 -1.570260298E+02 -8.794754702E+01 -1.905147627E+01
 1.017101797E+02 2.209849418E+02 2.806066448E+02 3.179175816E+02 3.425900325E+02
 3.481185009E+02 3.397083734E+02 3.176884847E+02 2.987217737E+02 2.862713834E+02
 2.562300088E+02 2.063287671E+02 1.598085788E+02 1.327061057E+02 1.237241500E+02
 1.213514959E+02 1.123749342E+02 8.308109043E+01 3.474101201E+01 -5.529225681E-01
 -1.685554956E+01 -3.565728665E+01 -4.837437885E+01 -6.368858667E+01 -7.983861070E+01
 -8.703712652E+01 -1.009969451E+02 -1.077140786E+02 -1.120525283E+02 -1.232241952E+02
 -1.290545092E+02 -1.339744794E+02 -1.361642510E+02 -1.414897838E+02 -1.464819289E+02
 -1.472770068E+02 -1.517938806E+02 -1.525537508E+02 -1.544195554E+02 -1.569891315E+02
 -1.606029177E+02 -1.634316235E+02 -1.634461939E+02 -1.661714891E+02 -1.633415072E+02
 -1.607828560E+02 -1.609614620E+02 -1.585480114E+02 -1.576683905E+02 -1.558098375E+02
 -1.539103282E+02 -1.528184904E+02 -1.479216306E+02 -1.434135348E+02 -1.404198930E+02
 -1.384029974E+02 -1.355875286E+02 -1.303535736E+02 -1.256239761E+02 -1.208512091E+02
 -1.169461930E+02 -1.126275024E+02 -1.066206342E+02 -1.014392057E+02 -9.748542156E+01
 -9.412236109E+01 -9.061676969E+01 -8.696052308E+01 -8.310677136E+01 -7.925158062E+01
 -7.595815372E+01 -7.319404165E+01 -7.043000655E+01 -6.746317088E+01 -6.513439665E+01
 -6.410137020E+01 -6.356039180E+01 -6.164843117E+01 -5.821436030E+01 -5.397070499E+01
 -5.016315748E+01 -4.824900558E+01 -4.869243177E+01 -5.092055922E+01 -5.436469504E+01
 -5.727759464E+01 -5.851380658E+01 -5.914664849E+01 -5.955675620E+01 -5.897070027E+01
 -5.772256383E+01 -5.547728768E+01 -5.206078510E+01 -4.749104070E+01 -4.460734795E+01
 -4.393525155E+01