TITLE     = "Fluent Common Fluid Files Data"
VARIABLES = "X"
"Y"
"Z"
"Static Pressure"
DATASETAUXDATA Common.DensityVar="7"
DATASETAUXDATA Common.PressureVar="15"
DATASETAUXDATA Common.TemperatureVar="17"
DATASETAUXDATA Common.TurbulentDynamicViscosityVar="12"
DATASETAUXDATA Common.TurbulentKineticEnergyVar="10"
DATASETAUXDATA Common.UVar="18"
DATASETAUXDATA Common.VectorVarsAreVelocity="True"
DATASETAUXDATA Common.ViscosityVar="11"
DATASETAUXDATA Common.VVar="19"
DATASETAUXDATA Common.WVar="20"
ZONE T="Slice: Z=0.1 (region 2)"
 STRANDID=7, SOLUTIONTIME=0
 I=223, J=1, K=1, ZONETYPE=Ordered
 DATAPACKING=BLOCK
 DT=(DOUBLE DOUBLE DOUBLE DOUBLE )
 2.559605255E+00 2.559597014E+00 2.559588715E+00 2.559580404E+00 2.559572082E+00
 2.559563747E+00 2.559555401E+00 2.559547043E+00 2.559538673E+00 2.559530291E+00
 2.559521862E+00 2.559513370E+00 2.559504861E+00 2.559496338E+00 2.559487630E+00
 2.559476965E+00 2.559466286E+00 2.559455594E+00 2.559444888E+00 2.559434168E+00
 2.559423434E+00 2.559412686E+00 2.559401925E+00 2.559391149E+00 2.559380358E+00
 2.559369553E+00 2.559358734E+00 2.559347900E+00 2.559337053E+00 2.559326192E+00
 2.559315316E+00 2.559303055E+00 2.557579427E+00 2.555821620E+00 2.554079477E+00
 2.552335100E+00 2.550593446E+00 2.548853066E+00 2.547115790E+00 2.545380748E+00
 2.543647168E+00 2.541916399E+00 2.540186108E+00 2.538460589E+00 2.536736683E+00
 2.535014303E+00 2.533294404E+00 2.531577402E+00 2.529863294E+00 2.528148800E+00
 2.526436767E+00 2.524725806E+00 2.523017035E+00 2.521308524E+00 2.519598705E+00
 2.517888813E+00 2.516179089E+00 2.514469816E+00 2.512760798E+00 2.511051564E+00
 2.509341298E+00 2.507629510E+00 2.505917953E+00 2.504208663E+00 2.502497853E+00
 2.500784526E+00 2.499070408E+00 2.497357425E+00 2.495648669E+00 2.493937192E+00
 2.492221007E+00 2.490504985E+00 2.488794671E+00 2.487090178E+00 2.485381372E+00
 2.483671517E+00 2.483666188E+00 2.481947734E+00 2.480237352E+00 2.478530502E+00
 2.476823133E+00 2.475121183E+00 2.473411001E+00 2.471699213E+00 2.469986543E+00
 2.468272207E+00 2.466570051E+00 2.464878384E+00 2.463189110E+00 2.461486994E+00
 2.459788807E+00 2.458089653E+00 2.456393033E+00 2.454699843E+00 2.453005516E+00
 2.451321606E+00 2.449628853E+00 2.447948503E+00 2.446263181E+00 2.444574914E+00
 2.442887716E+00 2.441199906E+00 2.439520423E+00 2.437852319E+00 2.436177578E+00
 2.434494005E+00 2.432811409E+00 2.431142629E+00 2.429493608E+00 2.427839686E+00
 2.426203699E+00 2.424584659E+00 2.423960659E+00 2.423332097E+00 2.422705080E+00
 2.422087567E+00 2.421495754E+00 2.420919435E+00 2.420348749E+00 2.419792536E+00
 2.419281504E+00 2.418814029E+00 2.418384430E+00 2.418023156E+00 2.417744834E+00
 2.417516751E+00 2.417448011E+00 2.417695354E+00 2.417955250E+00 2.418244913E+00
 2.418740953E+00 2.419250175E+00 2.419730892E+00 2.420319169E+00 2.420951202E+00
 2.421553622E+00 2.422132616E+00 2.422733711E+00 2.423375524E+00 2.424053191E+00
 2.424752804E+00 2.425460998E+00 2.426169539E+00 2.427786633E+00 2.429404889E+00
 2.431053025E+00 2.432715676E+00 2.434386314E+00 2.436073579E+00 2.437758781E+00
 2.439453335E+00 2.441157014E+00 2.442859854E+00 2.444573363E+00 2.446287654E+00
 2.448005462E+00 2.449726927E+00 2.451453076E+00 2.453182762E+00 2.454909454E+00
 2.456641804E+00 2.458373924E+00 2.460108835E+00 2.461841900E+00 2.463576557E+00
 2.465312926E+00 2.467050986E+00 2.468785515E+00 2.470524667E+00 2.472258226E+00
 2.473987046E+00 2.475718253E+00 2.477447528E+00 2.479171110E+00 2.480897378E+00
 2.482616845E+00 2.484337353E+00 2.486057496E+00 2.487767527E+00 2.489478233E+00
 2.491179488E+00 2.492881001E+00 2.494577079E+00 2.496267478E+00 2.497956658E+00
 2.499635407E+00 2.501313137E+00 2.502985468E+00 2.504650094E+00 2.506308957E+00
 2.507961070E+00 2.509609974E+00 2.511251273E+00 2.512889677E+00 2.514523094E+00
 2.516148882E+00 2.517772845E+00 2.519396064E+00 2.521011028E+00 2.522623902E+00
 2.524234676E+00 2.525844544E+00 2.527452570E+00 2.529059201E+00 2.529198527E+00
 2.530663465E+00 2.532272273E+00 2.533903265E+00 2.535532877E+00 2.537174411E+00
 2.538826372E+00 2.540487035E+00 2.542160644E+00 2.543849255E+00 2.545553734E+00
 2.547271167E+00 2.548994104E+00 2.550736704E+00 2.552485974E+00 2.554250360E+00
 2.556033100E+00 2.557810291E+00 2.559605255E+00
 1.501281756E+00 1.501215362E+00 1.501148994E+00 1.501082649E+00 1.501016326E+00
 1.500950025E+00 1.500883748E+00 1.500817492E+00 1.500751260E+00 1.500685050E+00
 1.500618862E+00 1.500552698E+00 1.500486556E+00 1.500420438E+00 1.500354319E+00
 1.500287960E+00 1.500221626E+00 1.500155318E+00 1.500089035E+00 1.500022778E+00
 1.499956547E+00 1.499890341E+00 1.499824161E+00 1.499758007E+00 1.499691879E+00
 1.499625777E+00 1.499559700E+00 1.499493650E+00 1.499427626E+00 1.499361627E+00
 1.499295655E+00 1.499229547E+00 1.498814974E+00 1.498547142E+00 1.498273075E+00
 1.498017608E+00 1.497767185E+00 1.497519814E+00 1.497280923E+00 1.497055694E+00
 1.496831299E+00 1.496609928E+00 1.496390044E+00 1.496184383E+00 1.495990150E+00
 1.495802538E+00 1.495619629E+00 1.495440630E+00 1.495266770E+00 1.495085731E+00
 1.494917464E+00 1.494763363E+00 1.494629201E+00 1.494491645E+00 1.494358131E+00
 1.494229262E+00 1.494101364E+00 1.493977796E+00 1.493862627E+00 1.493769760E+00
 1.493678989E+00 1.493568774E+00 1.493467279E+00 1.493371316E+00 1.493277578E+00
 1.493196727E+00 1.493112934E+00 1.493039832E+00 1.492964149E+00 1.492885097E+00
 1.492812355E+00 1.492737337E+00 1.492671405E+00 1.492627418E+00 1.492610256E+00
 1.492579345E+00 1.492579223E+00 1.492532984E+00 1.492489776E+00 1.492461203E+00
 1.492432225E+00 1.492413140E+00 1.492394340E+00 1.492389818E+00 1.492391358E+00
 1.492396322E+00 1.492406584E+00 1.492420317E+00 1.492451805E+00 1.492485933E+00
 1.492543338E+00 1.492606829E+00 1.492679972E+00 1.492759810E+00 1.492847881E+00
 1.492944848E+00 1.493054099E+00 1.493177583E+00 1.493315283E+00 1.493476109E+00
 1.493640294E+00 1.493835354E+00 1.494032110E+00 1.494259767E+00 1.494501175E+00
 1.494774417E+00 1.495072066E+00 1.495392952E+00 1.495761691E+00 1.496203559E+00
 1.496697682E+00 1.497255268E+00 1.497505294E+00 1.497747990E+00 1.498004483E+00
 1.498297427E+00 1.498631994E+00 1.498978110E+00 1.499340435E+00 1.499751535E+00
 1.500220373E+00 1.500719248E+00 1.501251986E+00 1.501839246E+00 1.502476070E+00
 1.503162004E+00 1.503937742E+00 1.504714622E+00 1.505402713E+00 1.506078663E+00
 1.506706584E+00 1.507254822E+00 1.507798510E+00 1.508279031E+00 1.508679812E+00
 1.509096807E+00 1.509536107E+00 1.509949351E+00 1.510306087E+00 1.510611254E+00
 1.510888235E+00 1.511156951E+00 1.511425482E+00 1.511971657E+00 1.512501691E+00
 1.512928705E+00 1.513312065E+00 1.513658244E+00 1.513964513E+00 1.514244365E+00
 1.514489489E+00 1.514708833E+00 1.514898887E+00 1.515055029E+00 1.515202344E+00
 1.515329589E+00 1.515432234E+00 1.515525226E+00 1.515596276E+00 1.515659011E+00
 1.515700219E+00 1.515727987E+00 1.515749222E+00 1.515740265E+00 1.515736629E+00
 1.515723427E+00 1.515713296E+00 1.515663970E+00 1.515624139E+00 1.515550966E+00
 1.515442888E+00 1.515342383E+00 1.515225629E+00 1.515088493E+00 1.514954853E+00
 1.514797347E+00 1.514639170E+00 1.514472134E+00 1.514278762E+00 1.514090518E+00
 1.513875008E+00 1.513655635E+00 1.513417668E+00 1.513165987E+00 1.512912121E+00
 1.512632801E+00 1.512348382E+00 1.512052371E+00 1.511739719E+00 1.511421065E+00
 1.511087389E+00 1.510746546E+00 1.510390456E+00 1.510030432E+00 1.509661711E+00
 1.509278442E+00 1.508893478E+00 1.508509104E+00 1.508108119E+00 1.507703128E+00
 1.507296400E+00 1.506890984E+00 1.506485007E+00 1.506071219E+00 1.506036065E+00
 1.505646926E+00 1.505216764E+00 1.504817408E+00 1.504435827E+00 1.504087170E+00
 1.503761581E+00 1.503458699E+00 1.503163968E+00 1.502880159E+00 1.502622225E+00
 1.502390138E+00 1.502161980E+00 1.501973554E+00 1.501796112E+00 1.501646372E+00
 1.501527665E+00 1.501423597E+00 1.501281756E+00
 1.000000000E-01 1.000000000E-01 1.000000000E-01 1.000000000E-01 1.000000000E-01
 1.000000000E-01 1.000000000E-01 1.000000000E-01 1.000000000E-01 1.000000000E-01
 1.000000000E-01 1.000000000E-01 1.000000000E-01 1.000000000E-01 1.000000000E-01
 1.000000000E-01 1.000000000E-01 1.000000000E-01 1.000000000E-01 1.000000000E-01
 1.000000000E-01 1.000000000E-01 1.000000000E-01 1.000000000E-01 1.000000000E-01
 1.000000000E-01 1.000000000E-01 1.000000000E-01 1.000000000E-01 1.000000000E-01
 1.000000000E-01 1.000000000E-01 1.000000000E-01 1.000000000E-01 1.000000000E-01
 1.000000000E-01 1.000000000E-01 1.000000000E-01 1.000000000E-01 1.000000000E-01
 1.000000000E-01 1.000000000E-01 1.000000000E-01 1.000000000E-01 1.000000000E-01
 1.000000000E-01 1.000000000E-01 1.000000000E-01 1.000000000E-01 1.000000000E-01
 1.000000000E-01 1.000000000E-01 1.000000000E-01 1.000000000E-01 1.000000000E-01
 1.000000000E-01 1.000000000E-01 1.000000000E-01 1.000000000E-01 1.000000000E-01
 1.000000000E-01 1.000000000E-01 1.000000000E-01 1.000000000E-01 1.000000000E-01
 1.000000000E-01 1.000000000E-01 1.000000000E-01 1.000000000E-01 1.000000000E-01
 1.000000000E-01 1.000000000E-01 1.000000000E-01 1.000000000E-01 1.000000000E-01
 1.000000000E-01 1.000000000E-01 1.000000000E-01 1.000000000E-01 1.000000000E-01
 1.000000000E-01 1.000000000E-01 1.000000000E-01 1.000000000E-01 1.000000000E-01
 1.000000000E-01 1.000000000E-01 1.000000000E-01 1.000000000E-01 1.000000000E-01
 1.000000000E-01 1.000000000E-01 1.000000000E-01 1.000000000E-01 1.000000000E-01
 1.000000000E-01 1.000000000E-01 1.000000000E-01 1.000000000E-01 1.000000000E-01
 1.000000000E-01 1.000000000E-01 1.000000000E-01 1.000000000E-01 1.000000000E-01
 1.000000000E-01 1.000000000E-01 1.000000000E-01 1.000000000E-01 1.000000000E-01
 1.000000000E-01 1.000000000E-01 1.000000000E-01 1.000000000E-01 1.000000000E-01
 1.000000000E-01 1.000000000E-01 1.000000000E-01 1.000000000E-01 1.000000000E-01
 1.000000000E-01 1.000000000E-01 1.000000000E-01 1.000000000E-01 1.000000000E-01
 1.000000000E-01 1.000000000E-01 1.000000000E-01 1.000000000E-01 1.000000000E-01
 1.000000000E-01 1.000000000E-01 1.000000000E-01 1.000000000E-01 1.000000000E-01
 1.000000000E-01 1.000000000E-01 1.000000000E-01 1.000000000E-01 1.000000000E-01
 1.000000000E-01 1.000000000E-01 1.000000000E-01 1.000000000E-01 1.000000000E-01
 1.000000000E-01 1.000000000E-01 1.000000000E-01 1.000000000E-01 1.000000000E-01
 1.000000000E-01 1.000000000E-01 1.000000000E-01 1.000000000E-01 1.000000000E-01
 1.000000000E-01 1.000000000E-01 1.000000000E-01 1.000000000E-01 1.000000000E-01
 1.000000000E-01 1.000000000E-01 1.000000000E-01 1.000000000E-01 1.000000000E-01
 1.000000000E-01 1.000000000E-01 1.000000000E-01 1.000000000E-01 1.000000000E-01
 1.000000000E-01 1.000000000E-01 1.000000000E-01 1.000000000E-01 1.000000000E-01
 1.000000000E-01 1.000000000E-01 1.000000000E-01 1.000000000E-01 1.000000000E-01
 1.000000000E-01 1.000000000E-01 1.000000000E-01 1.000000000E-01 1.000000000E-01
 1.000000000E-01 1.000000000E-01 1.000000000E-01 1.000000000E-01 1.000000000E-01
 1.000000000E-01 1.000000000E-01 1.000000000E-01 1.000000000E-01 1.000000000E-01
 1.000000000E-01 1.000000000E-01 1.000000000E-01 1.000000000E-01 1.000000000E-01
 1.000000000E-01 1.000000000E-01 1.000000000E-01 1.000000000E-01 1.000000000E-01
 1.000000000E-01 1.000000000E-01 1.000000000E-01 1.000000000E-01 1.000000000E-01
 1.000000000E-01 1.000000000E-01 1.000000000E-01 1.000000000E-01 1.000000000E-01
 1.000000000E-01 1.000000000E-01 1.000000000E-01 1.000000000E-01 1.000000000E-01
 1.000000000E-01 1.000000000E-01 1.000000000E-01
 -7.796291060E+01 -9.333982766E+01 -7.909610986E+01 -7.519684856E+01 -7.376746534E+01
 -7.355010666E+01 -7.284111216E+01 -7.221957263E+01 -7.196665910E+01 -7.148724196E+01
 -7.065971203E+01 -6.993027296E+01 -6.942126460E+01 -6.861547577E+01 -6.801343687E+01
 -6.774951969E+01 -6.704922164E+01 -6.662049983E+01 -6.641710118E+01 -6.598486892E+01
 -6.571100834E+01 -6.568420935E+01 -6.581694831E+01 -6.583947095E+01 -6.580437712E+01
 -6.574126009E+01 -6.579288399E+01 -6.616628980E+01 -6.632278409E+01 -6.571169429E+01
 -6.661514414E+01 -7.825379938E+01 -9.407111778E+01 -1.023115178E+02 -1.074811866E+02
 -1.126227760E+02 -1.187679663E+02 -1.267180613E+02 -1.364631251E+02 -1.473249678E+02
 -1.586284502E+02 -1.699981666E+02 -1.811653651E+02 -1.920260574E+02 -2.027101247E+02
 -2.135363301E+02 -2.247847594E+02 -2.366031565E+02 -2.490555246E+02 -2.619975086E+02
 -2.748381120E+02 -2.871468736E+02 -2.990244673E+02 -3.107738179E+02 -3.223616511E+02
 -3.338353607E+02 -3.452123474E+02 -3.564872099E+02 -3.670391373E+02 -3.766221717E+02
 -3.865360144E+02 -3.968999361E+02 -4.071071596E+02 -4.173298935E+02 -4.274881274E+02
 -4.379034000E+02 -4.483811452E+02 -4.586815438E+02 -4.698594096E+02 -4.817952375E+02
 -4.941252126E+02 -5.068013316E+02 -5.188963219E+02 -5.296204445E+02 -5.406316239E+02
 -5.531697367E+02 -5.532086388E+02 -5.663697699E+02 -5.795080899E+02 -5.924949794E+02
 -6.062624925E+02 -6.209960045E+02 -6.354272674E+02 -6.497228798E+02 -6.645888967E+02
 -6.803035515E+02 -6.964289255E+02 -7.122303034E+02 -7.281304532E+02 -7.444988917E+02
 -7.608940510E+02 -7.770938104E+02 -7.930467615E+02 -8.088156642E+02 -8.237176907E+02
 -8.376399355E+02 -8.524961278E+02 -8.677654761E+02 -8.839392591E+02 -9.029458901E+02
 -9.233424717E+02 -9.475450571E+02 -9.736650918E+02 -9.996415013E+02 -1.027348362E+03
 -1.062628095E+03 -1.111357988E+03 -1.162452574E+03 -1.198558703E+03 -1.246229738E+03
 -1.324529731E+03 -1.368840217E+03 -1.408910885E+03 -1.489005991E+03 -1.548532842E+03
 -1.561073674E+03 -1.577720443E+03 -1.650411061E+03 -1.736047785E+03 -1.754167777E+03
 -1.733025593E+03 -1.753782390E+03 -1.748637623E+03 -1.638113156E+03 -1.610485519E+03
 -1.646177807E+03 -1.191169222E+03 -5.725975900E+02 -3.250013208E+02 -1.041220351E+02
 1.441531139E+02 2.669402567E+02 3.375021072E+02 4.050859810E+02 4.393780818E+02
 4.498800067E+02 4.541787928E+02 4.517736296E+02 4.409900938E+02 4.262716530E+02
 4.125523405E+02 3.996203514E+02 3.811683497E+02 3.541503238E+02 3.178658231E+02
 2.841570136E+02 2.600370754E+02 2.363425887E+02 2.152018877E+02 1.945142829E+02
 1.747761148E+02 1.588903552E+02 1.424973084E+02 1.303898393E+02 1.189608107E+02
 1.052003753E+02 9.426997256E+01 8.367911599E+01 7.413105966E+01 6.340146864E+01
 5.347737596E+01 4.564067164E+01 3.583545867E+01 2.923747415E+01 2.253059921E+01
 1.368982621E+01 2.049748190E+00 -7.827806027E+00 -1.593016457E+01 -2.582864475E+01
 -2.669322608E+01 -2.703082515E+01 -3.253994754E+01 -3.458485995E+01 -3.766775286E+01
 -4.110111795E+01 -4.362760591E+01 -4.845735129E+01 -4.937603767E+01 -5.014874189E+01
 -5.176178865E+01 -5.200548053E+01 -5.236497550E+01 -4.989781515E+01 -4.868169094E+01
 -4.689969509E+01 -4.331281084E+01 -4.077230983E+01 -3.616765674E+01 -3.110366089E+01
 -2.648367103E+01 -2.144388369E+01 -1.559020607E+01 -9.391588775E+00 -3.777507877E+00
 2.860122339E+00 9.472392213E+00 1.462819625E+01 1.969865396E+01 2.531818124E+01
 3.034420500E+01 3.432250691E+01 3.744001523E+01 4.121841880E+01 4.158059279E+01
 4.531184517E+01 4.994926467E+01 5.358992814E+01 5.439443634E+01 5.286251981E+01
 4.931852459E+01 4.351015441E+01 3.701752931E+01 3.179147582E+01 2.625184332E+01
 1.889130284E+01 1.183652581E+01 4.118081903E+00 -4.653428483E+00 -1.351613546E+01
 -2.396016765E+01 -4.001028927E+01 -7.796291060E+01
ZONE T="Slice: Z=0.110645 (region 2)"
 STRANDID=7, SOLUTIONTIME=0
 I=221, J=1, K=1, ZONETYPE=Ordered
 DATAPACKING=BLOCK
 DT=(DOUBLE DOUBLE DOUBLE DOUBLE )
 2.566367336E+00 2.566367349E+00 2.566367349E+00 2.566367349E+00 2.566367349E+00
 2.566367349E+00 2.566367349E+00 2.566367349E+00 2.566367349E+00 2.566367349E+00
 2.566367349E+00 2.566367349E+00 2.566367349E+00 2.566367349E+00 2.566367349E+00
 2.566367349E+00 2.566367349E+00 2.566367349E+00 2.566367349E+00 2.566367350E+00
 2.566367350E+00 2.566367350E+00 2.566367350E+00 2.566367350E+00 2.566367350E+00
 2.566367350E+00 2.566367350E+00 2.566367350E+00 2.566367350E+00 2.566367350E+00
 2.566367350E+00 2.566367336E+00 2.564685045E+00 2.562963497E+00 2.561250379E+00
 2.559533624E+00 2.557817090E+00 2.556100555E+00 2.554383976E+00 2.552667375E+00
 2.550950819E+00 2.549234264E+00 2.547517714E+00 2.545801170E+00 2.544084627E+00
 2.542368106E+00 2.540651596E+00 2.538935085E+00 2.537218571E+00 2.535502018E+00
 2.533785512E+00 2.532069047E+00 2.530352581E+00 2.528636116E+00 2.526919225E+00
 2.525201334E+00 2.523483449E+00 2.521765563E+00 2.520047678E+00 2.518328109E+00
 2.516607488E+00 2.514886865E+00 2.513166242E+00 2.511445609E+00 2.509722340E+00
 2.507998822E+00 2.506275303E+00 2.504551784E+00 2.502827618E+00 2.501101323E+00
 2.499375028E+00 2.497648691E+00 2.495922352E+00 2.494194401E+00 2.492465179E+00
 2.490735956E+00 2.489006705E+00 2.487277454E+00 2.485546874E+00 2.483816057E+00
 2.482084351E+00 2.480351930E+00 2.478619456E+00 2.476886704E+00 2.475154133E+00
 2.473421423E+00 2.471688333E+00 2.469955135E+00 2.468222211E+00 2.466489359E+00
 2.464757175E+00 2.463024989E+00 2.461293922E+00 2.459563314E+00 2.457834092E+00
 2.456107229E+00 2.454380849E+00 2.452660103E+00 2.450939459E+00 2.449223687E+00
 2.447509911E+00 2.445799427E+00 2.444096901E+00 2.442404428E+00 2.440722931E+00
 2.439044479E+00 2.437375212E+00 2.435726861E+00 2.434126035E+00 2.432526637E+00
 2.430970803E+00 2.430320046E+00 2.429665905E+00 2.429016842E+00 2.428391498E+00
 2.427799131E+00 2.427220966E+00 2.426646771E+00 2.426101520E+00 2.425614301E+00
 2.425173154E+00 2.424768287E+00 2.424415475E+00 2.424120984E+00 2.423894189E+00
 2.423785535E+00 2.423840283E+00 2.423991711E+00 2.424126609E+00 2.424377379E+00
 2.424748681E+00 2.425097460E+00 2.425535214E+00 2.426078284E+00 2.426623898E+00
 2.427137556E+00 2.427676664E+00 2.428276023E+00 2.428925123E+00 2.429600744E+00
 2.430285740E+00 2.430970803E+00 2.432549704E+00 2.434153880E+00 2.435804177E+00
 2.437473755E+00 2.439157806E+00 2.440858437E+00 2.442559332E+00 2.444275020E+00
 2.445995116E+00 2.447719090E+00 2.449450239E+00 2.451181378E+00 2.452916434E+00
 2.454653290E+00 2.456391648E+00 2.458130876E+00 2.459870159E+00 2.461610193E+00
 2.463350227E+00 2.465090081E+00 2.466829619E+00 2.468569037E+00 2.470307686E+00
 2.472046324E+00 2.473783564E+00 2.475520270E+00 2.477256192E+00 2.478990426E+00
 2.480724637E+00 2.482456874E+00 2.484188892E+00 2.485919795E+00 2.487649485E+00
 2.489378836E+00 2.491104847E+00 2.492830744E+00 2.494556635E+00 2.496282526E+00
 2.498007509E+00 2.499729527E+00 2.501451432E+00 2.503171191E+00 2.504890514E+00
 2.506608492E+00 2.508324301E+00 2.510040075E+00 2.511755849E+00 2.513471621E+00
 2.515185669E+00 2.516898366E+00 2.518610512E+00 2.520320451E+00 2.522030393E+00
 2.523738434E+00 2.525445688E+00 2.527152737E+00 2.528859445E+00 2.530566170E+00
 2.532273213E+00 2.533977758E+00 2.535679168E+00 2.537378437E+00 2.539078129E+00
 2.540783007E+00 2.542492363E+00 2.544203230E+00 2.545914432E+00 2.547624752E+00
 2.549331445E+00 2.551037382E+00 2.552743309E+00 2.554449277E+00 2.556155495E+00
 2.557862010E+00 2.559567753E+00 2.561274182E+00 2.562978589E+00 2.564688336E+00
 2.566367336E+00
 1.504743454E+00 1.504662721E+00 1.504581988E+00 1.504501256E+00 1.504420523E+00
 1.504339791E+00 1.504259058E+00 1.504178326E+00 1.504097593E+00 1.504016861E+00
 1.503936128E+00 1.503855396E+00 1.503774663E+00 1.503693931E+00 1.503613198E+00
 1.503532466E+00 1.503451734E+00 1.503371001E+00 1.503290269E+00 1.503209536E+00
 1.503128804E+00 1.503048071E+00 1.502967339E+00 1.502886606E+00 1.502805874E+00
 1.502725141E+00 1.502644409E+00 1.502563676E+00 1.502482944E+00 1.502402211E+00
 1.502321479E+00 1.502240746E+00 1.501824920E+00 1.501603280E+00 1.501355493E+00
 1.501117087E+00 1.500877151E+00 1.500637219E+00 1.500397567E+00 1.500158066E+00
 1.499918284E+00 1.499678501E+00 1.499438678E+00 1.499198812E+00 1.498958942E+00
 1.498718914E+00 1.498478810E+00 1.498238706E+00 1.497998622E+00 1.497758776E+00
 1.497518600E+00 1.497278171E+00 1.497037743E+00 1.496797314E+00 1.496559942E+00
 1.496329911E+00 1.496099845E+00 1.495869779E+00 1.495639713E+00 1.495422580E+00
 1.495213962E+00 1.495005352E+00 1.494796742E+00 1.494588208E+00 1.494402728E+00
 1.494219573E+00 1.494036419E+00 1.493853264E+00 1.493676322E+00 1.493521518E+00
 1.493366718E+00 1.493212356E+00 1.493058015E+00 1.492922926E+00 1.492805219E+00
 1.492687511E+00 1.492570253E+00 1.492453000E+00 1.492357307E+00 1.492266040E+00
 1.492193440E+00 1.492140745E+00 1.492089895E+00 1.492049469E+00 1.492001888E+00
 1.491959856E+00 1.491938163E+00 1.491947328E+00 1.491979625E+00 1.492015102E+00
 1.492075062E+00 1.492134996E+00 1.492221648E+00 1.492316871E+00 1.492434564E+00
 1.492583192E+00 1.492736724E+00 1.492944546E+00 1.493152851E+00 1.493398185E+00
 1.493657234E+00 1.493936935E+00 1.494261687E+00 1.494635275E+00 1.495055588E+00
 1.495487826E+00 1.495954342E+00 1.496489990E+00 1.497154385E+00 1.497822199E+00
 1.498586061E+00 1.498960838E+00 1.499329673E+00 1.499707379E+00 1.500123167E+00
 1.500584730E+00 1.501063964E+00 1.501547950E+00 1.502064324E+00 1.502635771E+00
 1.503243485E+00 1.503875978E+00 1.504538895E+00 1.505229709E+00 1.505945631E+00
 1.506688694E+00 1.507437638E+00 1.508173160E+00 1.508911922E+00 1.509619774E+00
 1.510272502E+00 1.510937044E+00 1.511548307E+00 1.512066479E+00 1.512582781E+00
 1.513130487E+00 1.513653860E+00 1.514106043E+00 1.514482838E+00 1.514810396E+00
 1.515118181E+00 1.515425709E+00 1.516156908E+00 1.516831258E+00 1.517382852E+00
 1.517873152E+00 1.518310975E+00 1.518679197E+00 1.519046586E+00 1.519336941E+00
 1.519599778E+00 1.519835921E+00 1.520012121E+00 1.520188321E+00 1.520319511E+00
 1.520425059E+00 1.520502574E+00 1.520557542E+00 1.520610444E+00 1.520615064E+00
 1.520619247E+00 1.520597396E+00 1.520559154E+00 1.520514248E+00 1.520441781E+00
 1.520369166E+00 1.520269453E+00 1.520161294E+00 1.520041838E+00 1.519901021E+00
 1.519760013E+00 1.519596555E+00 1.519430953E+00 1.519251912E+00 1.519059643E+00
 1.518864675E+00 1.518643765E+00 1.518422256E+00 1.518200721E+00 1.517979186E+00
 1.517750316E+00 1.517499229E+00 1.517247624E+00 1.516983157E+00 1.516716123E+00
 1.516439936E+00 1.516150087E+00 1.515860094E+00 1.515570102E+00 1.515280110E+00
 1.514979756E+00 1.514671594E+00 1.514360823E+00 1.514038947E+00 1.513717071E+00
 1.513386593E+00 1.513052671E+00 1.512717080E+00 1.512378200E+00 1.512039381E+00
 1.511698637E+00 1.511346143E+00 1.510981089E+00 1.510608138E+00 1.510236760E+00
 1.509887671E+00 1.509561866E+00 1.509244387E+00 1.508928915E+00 1.508608652E+00
 1.508269342E+00 1.507926364E+00 1.507583544E+00 1.507240927E+00 1.506899739E+00
 1.506560111E+00 1.506214876E+00 1.505874318E+00 1.505524975E+00 1.505199044E+00
 1.504743454E+00
 1.106451613E-01 1.106451613E-01 1.106451613E-01 1.106451613E-01 1.106451613E-01
 1.106451613E-01 1.106451613E-01 1.106451613E-01 1.106451613E-01 1.106451613E-01
 1.106451613E-01 1.106451613E-01 1.106451613E-01 1.106451613E-01 1.106451613E-01
 1.106451613E-01 1.106451613E-01 1.106451613E-01 1.106451613E-01 1.106451613E-01
 1.106451613E-01 1.106451613E-01 1.106451613E-01 1.106451613E-01 1.106451613E-01
 1.106451613E-01 1.106451613E-01 1.106451613E-01 1.106451613E-01 1.106451613E-01
 1.106451613E-01 1.106451613E-01 1.106451613E-01 1.106451613E-01 1.106451613E-01
 1.106451613E-01 1.106451613E-01 1.106451613E-01 1.106451613E-01 1.106451613E-01
 1.106451613E-01 1.106451613E-01 1.106451613E-01 1.106451613E-01 1.106451613E-01
 1.106451613E-01 1.106451613E-01 1.106451613E-01 1.106451613E-01 1.106451613E-01
 1.106451613E-01 1.106451613E-01 1.106451613E-01 1.106451613E-01 1.106451613E-01
 1.106451613E-01 1.106451613E-01 1.106451613E-01 1.106451613E-01 1.106451613E-01
 1.106451613E-01 1.106451613E-01 1.106451613E-01 1.106451613E-01 1.106451613E-01
 1.106451613E-01 1.106451613E-01 1.106451613E-01 1.106451613E-01 1.106451613E-01
 1.106451613E-01 1.106451613E-01 1.106451613E-01 1.106451613E-01 1.106451613E-01
 1.106451613E-01 1.106451613E-01 1.106451613E-01 1.106451613E-01 1.106451613E-01
 1.106451613E-01 1.106451613E-01 1.106451613E-01 1.106451613E-01 1.106451613E-01
 1.106451613E-01 1.106451613E-01 1.106451613E-01 1.106451613E-01 1.106451613E-01
 1.106451613E-01 1.106451613E-01 1.106451613E-01 1.106451613E-01 1.106451613E-01
 1.106451613E-01 1.106451613E-01 1.106451613E-01 1.106451613E-01 1.106451613E-01
 1.106451613E-01 1.106451613E-01 1.106451613E-01 1.106451613E-01 1.106451613E-01
 1.106451613E-01 1.106451613E-01 1.106451613E-01 1.106451613E-01 1.106451613E-01
 1.106451613E-01 1.106451613E-01 1.106451613E-01 1.106451613E-01 1.106451613E-01
 1.106451613E-01 1.106451613E-01 1.106451613E-01 1.106451613E-01 1.106451613E-01
 1.106451613E-01 1.106451613E-01 1.106451613E-01 1.106451613E-01 1.106451613E-01
 1.106451613E-01 1.106451613E-01 1.106451613E-01 1.106451613E-01 1.106451613E-01
 1.106451613E-01 1.106451613E-01 1.106451613E-01 1.106451613E-01 1.106451613E-01
 1.106451613E-01 1.106451613E-01 1.106451613E-01 1.106451613E-01 1.106451613E-01
 1.106451613E-01 1.106451613E-01 1.106451613E-01 1.106451613E-01 1.106451613E-01
 1.106451613E-01 1.106451613E-01 1.106451613E-01 1.106451613E-01 1.106451613E-01
 1.106451613E-01 1.106451613E-01 1.106451613E-01 1.106451613E-01 1.106451613E-01
 1.106451613E-01 1.106451613E-01 1.106451613E-01 1.106451613E-01 1.106451613E-01
 1.106451613E-01 1.106451613E-01 1.106451613E-01 1.106451613E-01 1.106451613E-01
 1.106451613E-01 1.106451613E-01 1.106451613E-01 1.106451613E-01 1.106451613E-01
 1.106451613E-01 1.106451613E-01 1.106451613E-01 1.106451613E-01 1.106451613E-01
 1.106451613E-01 1.106451613E-01 1.106451613E-01 1.106451613E-01 1.106451613E-01
 1.106451613E-01 1.106451613E-01 1.106451613E-01 1.106451613E-01 1.106451613E-01
 1.106451613E-01 1.106451613E-01 1.106451613E-01 1.106451613E-01 1.106451613E-01
 1.106451613E-01 1.106451613E-01 1.106451613E-01 1.106451613E-01 1.106451613E-01
 1.106451613E-01 1.106451613E-01 1.106451613E-01 1.106451613E-01 1.106451613E-01
 1.106451613E-01 1.106451613E-01 1.106451613E-01 1.106451613E-01 1.106451613E-01
 1.106451613E-01 1.106451613E-01 1.106451613E-01 1.106451613E-01 1.106451613E-01
 1.106451613E-01 1.106451613E-01 1.106451613E-01 1.106451613E-01 1.106451613E-01
 1.106451613E-01 1.106451613E-01 1.106451613E-01 1.106451613E-01 1.106451613E-01
 1.106451613E-01
 -7.943694900E+01 -8.445289647E+01 -7.607764276E+01 -7.276112720E+01 -7.089518385E+01
 -7.015164576E+01 -6.961821494E+01 -6.911697609E+01 -6.854439843E+01 -6.777632557E+01
 -6.681538934E+01 -6.576915529E+01 -6.470797704E+01 -6.364875247E+01 -6.258954313E+01
 -6.152216749E+01 -6.043374766E+01 -5.929881713E+01 -5.814357455E+01 -5.698486942E+01
 -5.579014649E+01 -5.458385234E+01 -5.342033252E+01 -5.232517670E+01 -5.131946534E+01
 -5.041609723E+01 -4.958264859E+01 -4.863672502E+01 -4.724767853E+01 -4.603071698E+01
 -4.585530628E+01 -5.201136693E+01 -6.771925388E+01 -8.148066802E+01 -9.021687380E+01
 -9.920456515E+01 -1.081271253E+02 -1.179142975E+02 -1.284517303E+02 -1.392941706E+02
 -1.502870231E+02 -1.612140266E+02 -1.717936779E+02 -1.820441001E+02 -1.920788717E+02
 -2.020532389E+02 -2.121709498E+02 -2.226371055E+02 -2.335903928E+02 -2.448619946E+02
 -2.561275568E+02 -2.673825699E+02 -2.787117857E+02 -2.899885117E+02 -3.010887261E+02
 -3.118369484E+02 -3.221596291E+02 -3.323366870E+02 -3.424454891E+02 -3.522919343E+02
 -3.618831693E+02 -3.713988085E+02 -3.806885315E+02 -3.899555595E+02 -3.992344779E+02
 -4.088009006E+02 -4.185085568E+02 -4.282230845E+02 -4.386173592E+02 -4.496273216E+02
 -4.611972267E+02 -4.730661063E+02 -4.844461378E+02 -4.952547093E+02 -5.068233975E+02
 -5.191054895E+02 -5.315565188E+02 -5.440110407E+02 -5.561235318E+02 -5.687655980E+02
 -5.817972452E+02 -5.944498982E+02 -6.072788389E+02 -6.211088046E+02 -6.366495270E+02
 -6.531155416E+02 -6.688965815E+02 -6.841404369E+02 -7.008596542E+02 -7.177750628E+02
 -7.356844790E+02 -7.546891467E+02 -7.739905474E+02 -7.933633520E+02 -8.107500057E+02
 -8.311114008E+02 -8.490052209E+02 -8.668361915E+02 -8.878293952E+02 -9.110774496E+02
 -9.440952651E+02 -9.790946730E+02 -1.007878236E+03 -1.029298801E+03 -1.063313453E+03
 -1.126715926E+03 -1.195820196E+03 -1.221757692E+03 -1.250855947E+03 -1.317118981E+03
 -1.330501598E+03 -1.346970631E+03 -1.427922754E+03 -1.485943048E+03 -1.459611928E+03
 -1.418282027E+03 -1.457529599E+03 -1.525592294E+03 -1.513175269E+03 -1.434631394E+03
 -1.376240799E+03 -1.318246160E+03 -1.223427499E+03 -1.166265967E+03 -1.120927540E+03
 -8.505884009E+02 -4.773993084E+02 -2.975191447E+02 -1.627999951E+02 2.934490149E+01
 1.458312462E+02 2.141998114E+02 2.933822605E+02 3.421874272E+02 3.607083721E+02
 3.719564138E+02 3.791906646E+02 3.781898885E+02 3.700967098E+02 3.602306806E+02
 3.507491337E+02 3.391506408E+02 3.164621743E+02 2.814635251E+02 2.503580791E+02
 2.269963534E+02 2.029082727E+02 1.825489331E+02 1.610136158E+02 1.403373537E+02
 1.255222188E+02 1.071849513E+02 9.453498939E+01 8.335872257E+01 6.815077198E+01
 5.717162037E+01 4.682130309E+01 3.864789542E+01 2.822247623E+01 1.867281147E+01
 1.251113428E+01 3.412746885E+00 -2.055418472E+00 -8.132631383E+00 -1.462534324E+01
 -2.223842944E+01 -2.869046664E+01 -3.243584190E+01 -3.862862356E+01 -3.942855471E+01
 -4.068679788E+01 -4.442849924E+01 -4.549099624E+01 -4.797380736E+01 -4.943426432E+01
 -5.088517090E+01 -5.299138754E+01 -5.106415622E+01 -4.979431889E+01 -5.027846690E+01
 -5.183350014E+01 -5.232086787E+01 -4.990997266E+01 -4.810262116E+01 -4.611099437E+01
 -4.478525191E+01 -4.264652152E+01 -3.817026754E+01 -3.443873103E+01 -3.207311608E+01
 -3.025493970E+01 -2.809053416E+01 -2.556546198E+01 -2.265607099E+01 -1.966328814E+01
 -1.729548911E+01 -1.553153309E+01 -1.363710796E+01 -1.125722059E+01 -9.524754165E+00
 -9.450342565E+00 -9.895445391E+00 -8.352804937E+00 -4.860451675E+00 -7.407777995E-01
 2.408226805E+00 2.650592950E+00 -5.979338905E-01 -6.122610435E+00 -1.293394307E+01
 -1.843656559E+01 -2.157574683E+01 -2.465354061E+01 -2.853969842E+01 -3.230054746E+01
 -3.645550414E+01 -4.041734023E+01 -4.412012627E+01 -4.757002073E+01 -5.832763145E+01
 -7.943694900E+01
ZONE T="Slice: Z=0.12129 (region 2)"
 STRANDID=7, SOLUTIONTIME=0