TITLE     = "Fluent Common Fluid Files Data"
VARIABLES = "X"
"Y"
"Z"
"Static Pressure"
DATASETAUXDATA Common.DensityVar="7"
DATASETAUXDATA Common.PressureVar="15"
DATASETAUXDATA Common.TemperatureVar="17"
DATASETAUXDATA Common.TurbulentDynamicViscosityVar="12"
DATASETAUXDATA Common.TurbulentKineticEnergyVar="10"
DATASETAUXDATA Common.UVar="18"
DATASETAUXDATA Common.VectorVarsAreVelocity="True"
DATASETAUXDATA Common.ViscosityVar="11"
DATASETAUXDATA Common.VVar="19"
DATASETAUXDATA Common.WVar="20"
ZONE T="Slice: Z=0.1 (region 1)"
 STRANDID=7, SOLUTIONTIME=0
 I=223, J=1, K=1, ZONETYPE=Ordered
 DATAPACKING=BLOCK
 DT=(DOUBLE DOUBLE DOUBLE DOUBLE )
 2.559303055E+00 2.559315316E+00 2.559326192E+00 2.559337053E+00 2.559347900E+00
 2.559358734E+00 2.559369553E+00 2.559380358E+00 2.559391149E+00 2.559401925E+00
 2.559412686E+00 2.559423434E+00 2.559434168E+00 2.559444888E+00 2.559455594E+00
 2.559466286E+00 2.559476965E+00 2.559487630E+00 2.559496338E+00 2.559504861E+00
 2.559513370E+00 2.559521862E+00 2.559530291E+00 2.559538673E+00 2.559547043E+00
 2.559555401E+00 2.559563747E+00 2.559572082E+00 2.559580404E+00 2.559588715E+00
 2.559597014E+00 2.559605255E+00 2.557810291E+00 2.556033100E+00 2.554250360E+00
 2.552485974E+00 2.550736704E+00 2.548994104E+00 2.547271167E+00 2.545553734E+00
 2.543849255E+00 2.542160644E+00 2.540487035E+00 2.538826372E+00 2.537174411E+00
 2.535532877E+00 2.533903265E+00 2.532272273E+00 2.530663465E+00 2.529198527E+00
 2.529059201E+00 2.527452570E+00 2.525844544E+00 2.524234676E+00 2.522623902E+00
 2.521011028E+00 2.519396064E+00 2.517772845E+00 2.516148882E+00 2.514523094E+00
 2.512889677E+00 2.511251273E+00 2.509609974E+00 2.507961070E+00 2.506308957E+00
 2.504650094E+00 2.502985468E+00 2.501313137E+00 2.499635407E+00 2.497956658E+00
 2.496267478E+00 2.494577079E+00 2.492881001E+00 2.491179488E+00 2.489478233E+00
 2.487767527E+00 2.486057496E+00 2.484337353E+00 2.482616845E+00 2.480897378E+00
 2.479171110E+00 2.477447528E+00 2.475718253E+00 2.473987046E+00 2.472258226E+00
 2.470524667E+00 2.468785515E+00 2.467050986E+00 2.465312926E+00 2.463576557E+00
 2.461841900E+00 2.460108835E+00 2.458373924E+00 2.456641804E+00 2.454909454E+00
 2.453182762E+00 2.451453076E+00 2.449726927E+00 2.448005462E+00 2.446287654E+00
 2.444573363E+00 2.442859854E+00 2.441157014E+00 2.439453335E+00 2.437758781E+00
 2.436073579E+00 2.434386314E+00 2.432715676E+00 2.431053025E+00 2.429404889E+00
 2.427786633E+00 2.426169539E+00 2.425460998E+00 2.424752804E+00 2.424053191E+00
 2.423375524E+00 2.422733711E+00 2.422132616E+00 2.421553622E+00 2.420951202E+00
 2.420319169E+00 2.419730892E+00 2.419250175E+00 2.418740953E+00 2.418244913E+00
 2.417955250E+00 2.417695354E+00 2.417448011E+00 2.417516751E+00 2.417744834E+00
 2.418023156E+00 2.418384430E+00 2.418814029E+00 2.419281504E+00 2.419792536E+00
 2.420348749E+00 2.420919435E+00 2.421495754E+00 2.422087567E+00 2.422705080E+00
 2.423332097E+00 2.423960659E+00 2.424584659E+00 2.426203699E+00 2.427839686E+00
 2.429493608E+00 2.431142629E+00 2.432811409E+00 2.434494005E+00 2.436177578E+00
 2.437852319E+00 2.439520423E+00 2.441199906E+00 2.442887716E+00 2.444574914E+00
 2.446263181E+00 2.447948503E+00 2.449628853E+00 2.451321606E+00 2.453005516E+00
 2.454699843E+00 2.456393033E+00 2.458089653E+00 2.459788807E+00 2.461486994E+00
 2.463189110E+00 2.464878384E+00 2.466570051E+00 2.468272207E+00 2.469986543E+00
 2.471699213E+00 2.473411001E+00 2.475121183E+00 2.476823133E+00 2.478530502E+00
 2.480237352E+00 2.481947734E+00 2.483666188E+00 2.483671517E+00 2.485381372E+00
 2.487090178E+00 2.488794671E+00 2.490504985E+00 2.492221007E+00 2.493937192E+00
 2.495648669E+00 2.497357425E+00 2.499070408E+00 2.500784526E+00 2.502497853E+00
 2.504208663E+00 2.505917953E+00 2.507629510E+00 2.509341298E+00 2.511051564E+00
 2.512760798E+00 2.514469816E+00 2.516179089E+00 2.517888813E+00 2.519598705E+00
 2.521308524E+00 2.523017035E+00 2.524725806E+00 2.526436767E+00 2.528148800E+00
 2.529863294E+00 2.531577402E+00 2.533294404E+00 2.535014303E+00 2.536736683E+00
 2.538460589E+00 2.540186108E+00 2.541916399E+00 2.543647168E+00 2.545380748E+00
 2.547115790E+00 2.548853066E+00 2.550593446E+00 2.552335100E+00 2.554079477E+00
 2.555821620E+00 2.557579427E+00 2.559303055E+00
 -1.499229547E+00 -1.499295655E+00 -1.499361627E+00 -1.499427626E+00 -1.499493650E+00
 -1.499559700E+00 -1.499625777E+00 -1.499691879E+00 -1.499758007E+00 -1.499824161E+00
 -1.499890341E+00 -1.499956547E+00 -1.500022778E+00 -1.500089035E+00 -1.500155318E+00
 -1.500221626E+00 -1.500287960E+00 -1.500354319E+00 -1.500420438E+00 -1.500486556E+00
 -1.500552698E+00 -1.500618862E+00 -1.500685050E+00 -1.500751260E+00 -1.500817492E+00
 -1.500883748E+00 -1.500950025E+00 -1.501016326E+00 -1.501082649E+00 -1.501148994E+00
 -1.501215362E+00 -1.501281756E+00 -1.501423597E+00 -1.501527665E+00 -1.501646372E+00
 -1.501796112E+00 -1.501973554E+00 -1.502161980E+00 -1.502390138E+00 -1.502622225E+00
 -1.502880159E+00 -1.503163968E+00 -1.503458699E+00 -1.503761581E+00 -1.504087170E+00
 -1.504435827E+00 -1.504817408E+00 -1.505216764E+00 -1.505646926E+00 -1.506036065E+00
 -1.506071219E+00 -1.506485007E+00 -1.506890984E+00 -1.507296400E+00 -1.507703128E+00
 -1.508108119E+00 -1.508509104E+00 -1.508893478E+00 -1.509278442E+00 -1.509661711E+00
 -1.510030432E+00 -1.510390456E+00 -1.510746546E+00 -1.511087389E+00 -1.511421065E+00
 -1.511739719E+00 -1.512052371E+00 -1.512348382E+00 -1.512632801E+00 -1.512912121E+00
 -1.513165987E+00 -1.513417668E+00 -1.513655635E+00 -1.513875008E+00 -1.514090518E+00
 -1.514278762E+00 -1.514472134E+00 -1.514639170E+00 -1.514797347E+00 -1.514954853E+00
 -1.515088493E+00 -1.515225629E+00 -1.515342383E+00 -1.515442888E+00 -1.515550966E+00
 -1.515624139E+00 -1.515663970E+00 -1.515713296E+00 -1.515723427E+00 -1.515736629E+00
 -1.515740265E+00 -1.515749222E+00 -1.515727987E+00 -1.515700219E+00 -1.515659011E+00
 -1.515596276E+00 -1.515525226E+00 -1.515432234E+00 -1.515329589E+00 -1.515202344E+00
 -1.515055029E+00 -1.514898887E+00 -1.514708833E+00 -1.514489489E+00 -1.514244365E+00
 -1.513964513E+00 -1.513658244E+00 -1.513312065E+00 -1.512928705E+00 -1.512501691E+00
 -1.511971657E+00 -1.511425482E+00 -1.511156951E+00 -1.510888235E+00 -1.510611254E+00
 -1.510306087E+00 -1.509949351E+00 -1.509536107E+00 -1.509096807E+00 -1.508679812E+00
 -1.508279031E+00 -1.507798510E+00 -1.507254822E+00 -1.506706584E+00 -1.506078663E+00
 -1.505402713E+00 -1.504714622E+00 -1.503937742E+00 -1.503162004E+00 -1.502476070E+00
 -1.501839246E+00 -1.501251986E+00 -1.500719248E+00 -1.500220373E+00 -1.499751535E+00
 -1.499340435E+00 -1.498978110E+00 -1.498631994E+00 -1.498297427E+00 -1.498004483E+00
 -1.497747990E+00 -1.497505294E+00 -1.497255268E+00 -1.496697682E+00 -1.496203559E+00
 -1.495761691E+00 -1.495392952E+00 -1.495072066E+00 -1.494774417E+00 -1.494501175E+00
 -1.494259767E+00 -1.494032110E+00 -1.493835354E+00 -1.493640294E+00 -1.493476109E+00
 -1.493315283E+00 -1.493177583E+00 -1.493054099E+00 -1.492944848E+00 -1.492847881E+00
 -1.492759810E+00 -1.492679972E+00 -1.492606829E+00 -1.492543338E+00 -1.492485933E+00
 -1.492451805E+00 -1.492420317E+00 -1.492406584E+00 -1.492396322E+00 -1.492391358E+00
 -1.492389818E+00 -1.492394340E+00 -1.492413140E+00 -1.492432225E+00 -1.492461203E+00
 -1.492489776E+00 -1.492532984E+00 -1.492579223E+00 -1.492579345E+00 -1.492610256E+00
 -1.492627418E+00 -1.492671405E+00 -1.492737337E+00 -1.492812355E+00 -1.492885097E+00
 -1.492964149E+00 -1.493039832E+00 -1.493112934E+00 -1.493196727E+00 -1.493277578E+00
 -1.493371316E+00 -1.493467279E+00 -1.493568774E+00 -1.493678989E+00 -1.493769760E+00
 -1.493862627E+00 -1.493977796E+00 -1.494101364E+00 -1.494229262E+00 -1.494358131E+00
 -1.494491645E+00 -1.494629201E+00 -1.494763363E+00 -1.494917464E+00 -1.495085731E+00
 -1.495266770E+00 -1.495440630E+00 -1.495619629E+00 -1.495802538E+00 -1.495990150E+00
 -1.496184383E+00 -1.496390044E+00 -1.496609928E+00 -1.496831299E+00 -1.497055694E+00
 -1.497280923E+00 -1.497519814E+00 -1.497767185E+00 -1.498017608E+00 -1.498273075E+00
 -1.498547142E+00 -1.498814974E+00 -1.499229547E+00
 1.000000000E-01 1.000000000E-01 1.000000000E-01 1.000000000E-01 1.000000000E-01
 1.000000000E-01 1.000000000E-01 1.000000000E-01 1.000000000E-01 1.000000000E-01
 1.000000000E-01 1.000000000E-01 1.000000000E-01 1.000000000E-01 1.000000000E-01
 1.000000000E-01 1.000000000E-01 1.000000000E-01 1.000000000E-01 1.000000000E-01
 1.000000000E-01 1.000000000E-01 1.000000000E-01 1.000000000E-01 1.000000000E-01
 1.000000000E-01 1.000000000E-01 1.000000000E-01 1.000000000E-01 1.000000000E-01
 1.000000000E-01 1.000000000E-01 1.000000000E-01 1.000000000E-01 1.000000000E-01
 1.000000000E-01 1.000000000E-01 1.000000000E-01 1.000000000E-01 1.000000000E-01
 1.000000000E-01 1.000000000E-01 1.000000000E-01 1.000000000E-01 1.000000000E-01
 1.000000000E-01 1.000000000E-01 1.000000000E-01 1.000000000E-01 1.000000000E-01
 1.000000000E-01 1.000000000E-01 1.000000000E-01 1.000000000E-01 1.000000000E-01
 1.000000000E-01 1.000000000E-01 1.000000000E-01 1.000000000E-01 1.000000000E-01
 1.000000000E-01 1.000000000E-01 1.000000000E-01 1.000000000E-01 1.000000000E-01
 1.000000000E-01 1.000000000E-01 1.000000000E-01 1.000000000E-01 1.000000000E-01
 1.000000000E-01 1.000000000E-01 1.000000000E-01 1.000000000E-01 1.000000000E-01
 1.000000000E-01 1.000000000E-01 1.000000000E-01 1.000000000E-01 1.000000000E-01
 1.000000000E-01 1.000000000E-01 1.000000000E-01 1.000000000E-01 1.000000000E-01
 1.000000000E-01 1.000000000E-01 1.000000000E-01 1.000000000E-01 1.000000000E-01
 1.000000000E-01 1.000000000E-01 1.000000000E-01 1.000000000E-01 1.000000000E-01
 1.000000000E-01 1.000000000E-01 1.000000000E-01 1.000000000E-01 1.000000000E-01
 1.000000000E-01 1.000000000E-01 1.000000000E-01 1.000000000E-01 1.000000000E-01
 1.000000000E-01 1.000000000E-01 1.000000000E-01 1.000000000E-01 1.000000000E-01
 1.000000000E-01 1.000000000E-01 1.000000000E-01 1.000000000E-01 1.000000000E-01
 1.000000000E-01 1.000000000E-01 1.000000000E-01 1.000000000E-01 1.000000000E-01
 1.000000000E-01 1.000000000E-01 1.000000000E-01 1.000000000E-01 1.000000000E-01
 1.000000000E-01 1.000000000E-01 1.000000000E-01 1.000000000E-01 1.000000000E-01
 1.000000000E-01 1.000000000E-01 1.000000000E-01 1.000000000E-01 1.000000000E-01
 1.000000000E-01 1.000000000E-01 1.000000000E-01 1.000000000E-01 1.000000000E-01
 1.000000000E-01 1.000000000E-01 1.000000000E-01 1.000000000E-01 1.000000000E-01
 1.000000000E-01 1.000000000E-01 1.000000000E-01 1.000000000E-01 1.000000000E-01
 1.000000000E-01 1.000000000E-01 1.000000000E-01 1.000000000E-01 1.000000000E-01
 1.000000000E-01 1.000000000E-01 1.000000000E-01 1.000000000E-01 1.000000000E-01
 1.000000000E-01 1.000000000E-01 1.000000000E-01 1.000000000E-01 1.000000000E-01
 1.000000000E-01 1.000000000E-01 1.000000000E-01 1.000000000E-01 1.000000000E-01
 1.000000000E-01 1.000000000E-01 1.000000000E-01 1.000000000E-01 1.000000000E-01
 1.000000000E-01 1.000000000E-01 1.000000000E-01 1.000000000E-01 1.000000000E-01
 1.000000000E-01 1.000000000E-01 1.000000000E-01 1.000000000E-01 1.000000000E-01
 1.000000000E-01 1.000000000E-01 1.000000000E-01 1.000000000E-01 1.000000000E-01
 1.000000000E-01 1.000000000E-01 1.000000000E-01 1.000000000E-01 1.000000000E-01
 1.000000000E-01 1.000000000E-01 1.000000000E-01 1.000000000E-01 1.000000000E-01
 1.000000000E-01 1.000000000E-01 1.000000000E-01 1.000000000E-01 1.000000000E-01
 1.000000000E-01 1.000000000E-01 1.000000000E-01 1.000000000E-01 1.000000000E-01
 1.000000000E-01 1.000000000E-01 1.000000000E-01 1.000000000E-01 1.000000000E-01
 1.000000000E-01 1.000000000E-01 1.000000000E-01 1.000000000E-01 1.000000000E-01
 1.000000000E-01 1.000000000E-01 1.000000000E-01
 -6.123473215E+01 -4.194832964E+01 -4.554236321E+01 -4.835114487E+01 -5.113996919E+01
 -5.450263028E+01 -5.745391287E+01 -6.038683368E+01 -6.155772474E+01 -6.197936758E+01
 -6.456215950E+01 -6.841819499E+01 -7.060371133E+01 -7.136110903E+01 -7.370664637E+01
 -7.682460034E+01 -7.919875322E+01 -8.190124415E+01 -8.322981508E+01 -8.332538410E+01
 -8.405419501E+01 -8.511645974E+01 -8.568167705E+01 -8.519840404E+01 -8.450305367E+01
 -8.418926981E+01 -8.403168912E+01 -8.425326130E+01 -8.550960356E+01 -9.351824619E+01
 -1.258716395E+02 -8.779013481E+01 -1.351423838E+00 3.242298503E+01 5.042278113E+01
 6.235203113E+01 7.385084363E+01 8.433585801E+01 9.369178066E+01 1.025348053E+02
 1.077180560E+02 1.114912747E+02 1.166709114E+02 1.221294519E+02 1.256238748E+02
 1.267303695E+02 1.245418272E+02 1.182044224E+02 1.104725128E+02 1.039421070E+02
 1.033128854E+02 9.723440868E+01 9.287588055E+01 8.825339667E+01 8.303890076E+01
 7.777706813E+01 7.393536219E+01 7.063756459E+01 6.587887919E+01 6.108559114E+01
 5.756235942E+01 5.317338786E+01 4.910495945E+01 4.615706209E+01 4.394315367E+01
 4.137866229E+01 3.949987609E+01 4.008620234E+01 3.953154483E+01 4.081564727E+01
 4.257516109E+01 4.316005907E+01 4.661585157E+01 4.962090532E+01 5.435588079E+01
 5.802553438E+01 6.175159948E+01 6.978078044E+01 7.510562362E+01 8.130380963E+01
 8.712445549E+01 9.180429576E+01 1.000712615E+02 1.032820635E+02 1.072705518E+02
 1.202804285E+02 1.315263934E+02 1.436867045E+02 1.570857814E+02 1.680098183E+02
 1.770061616E+02 1.859284398E+02 1.973805804E+02 2.074692206E+02 2.195910659E+02
 2.325777991E+02 2.448312484E+02 2.579797767E+02 2.717615093E+02 2.880048850E+02
 3.026934753E+02 3.178734468E+02 3.363344147E+02 3.548971169E+02 3.758339685E+02
 3.975151686E+02 4.191333535E+02 4.417852078E+02 4.637479158E+02 4.875544915E+02
 5.082630747E+02 5.187250067E+02 5.226034065E+02 5.224583052E+02 5.159995263E+02
 4.977945552E+02 4.661744807E+02 4.295409639E+02 3.942976945E+02 3.401529266E+02
 2.033249889E+02 2.509268469E+00 -1.462593123E+02 -3.974997521E+02 -8.997884756E+02
 -1.235321963E+03 -1.535463943E+03 -2.467658672E+03 -3.046927034E+03 -2.797351395E+03
 -2.659975378E+03 -2.651830675E+03 -2.566977364E+03 -2.478855093E+03 -2.433271260E+03
 -2.368490388E+03 -2.255846217E+03 -2.155943446E+03 -2.100559912E+03 -2.055823653E+03
 -1.991426729E+03 -1.922650950E+03 -1.893357616E+03 -1.837936456E+03 -1.739439957E+03
 -1.672077549E+03 -1.616139640E+03 -1.563903616E+03 -1.521615365E+03 -1.486789962E+03
 -1.456480547E+03 -1.427449882E+03 -1.400439230E+03 -1.375425398E+03 -1.350867720E+03
 -1.327543665E+03 -1.303126064E+03 -1.277975225E+03 -1.252461297E+03 -1.227121211E+03
 -1.201008263E+03 -1.172133555E+03 -1.144980653E+03 -1.119072576E+03 -1.093609463E+03
 -1.069444024E+03 -1.045152986E+03 -1.022471239E+03 -1.002075076E+03 -9.820193797E+02
 -9.620574933E+02 -9.426653387E+02 -9.227584852E+02 -9.033509406E+02 -8.848960657E+02
 -8.666373908E+02 -8.487254581E+02 -8.308987489E+02 -8.308437371E+02 -8.132151630E+02
 -7.959581970E+02 -7.784652668E+02 -7.606155409E+02 -7.425814125E+02 -7.251030791E+02
 -7.083331159E+02 -6.922463190E+02 -6.766966606E+02 -6.610000270E+02 -6.451103987E+02
 -6.288948281E+02 -6.125851232E+02 -5.959739662E+02 -5.791945282E+02 -5.623522052E+02
 -5.450789053E+02 -5.279747845E+02 -5.105858292E+02 -4.928142348E+02 -4.749740012E+02
 -4.569393401E+02 -4.389554441E+02 -4.205850216E+02 -4.019580116E+02 -3.834100465E+02
 -3.653074300E+02 -3.473823053E+02 -3.296223394E+02 -3.125656633E+02 -2.963351465E+02
 -2.807406314E+02 -2.654527018E+02 -2.505745694E+02 -2.360669986E+02 -2.221667371E+02
 -2.086080051E+02 -1.953052595E+02 -1.824541454E+02 -1.692666864E+02 -1.539334011E+02
 -1.395245431E+02 -1.078661290E+02 -6.123473215E+01
ZONE T="Slice: Z=0.110645 (region 1)"
 STRANDID=7, SOLUTIONTIME=0
 I=221, J=1, K=1, ZONETYPE=Ordered
 DATAPACKING=BLOCK
 DT=(DOUBLE DOUBLE DOUBLE DOUBLE )
 2.566367336E+00 2.566367350E+00 2.566367350E+00 2.566367350E+00 2.566367350E+00
 2.566367350E+00 2.566367350E+00 2.566367350E+00 2.566367350E+00 2.566367350E+00
 2.566367350E+00 2.566367350E+00 2.566367350E+00 2.566367349E+00 2.566367349E+00
 2.566367349E+00 2.566367349E+00 2.566367349E+00 2.566367349E+00 2.566367349E+00
 2.566367349E+00 2.566367349E+00 2.566367349E+00 2.566367349E+00 2.566367349E+00
 2.566367349E+00 2.566367349E+00 2.566367349E+00 2.566367349E+00 2.566367349E+00
 2.566367349E+00 2.566367336E+00 2.564688336E+00 2.562978589E+00 2.561274182E+00
 2.559567753E+00 2.557862010E+00 2.556155495E+00 2.554449277E+00 2.552743309E+00
 2.551037382E+00 2.549331445E+00 2.547624752E+00 2.545914432E+00 2.544203230E+00
 2.542492363E+00 2.540783007E+00 2.539078129E+00 2.537378437E+00 2.535679168E+00
 2.533977758E+00 2.532273213E+00 2.530566170E+00 2.528859445E+00 2.527152737E+00
 2.525445688E+00 2.523738434E+00 2.522030393E+00 2.520320451E+00 2.518610512E+00
 2.516898366E+00 2.515185669E+00 2.513471621E+00 2.511755849E+00 2.510040075E+00
 2.508324301E+00 2.506608492E+00 2.504890514E+00 2.503171191E+00 2.501451432E+00
 2.499729527E+00 2.498007509E+00 2.496282526E+00 2.494556635E+00 2.492830744E+00
 2.491104847E+00 2.489378836E+00 2.487649485E+00 2.485919795E+00 2.484188892E+00
 2.482456874E+00 2.480724637E+00 2.478990426E+00 2.477256192E+00 2.475520270E+00
 2.473783564E+00 2.472046324E+00 2.470307686E+00 2.468569037E+00 2.466829619E+00
 2.465090081E+00 2.463350227E+00 2.461610193E+00 2.459870159E+00 2.458130876E+00
 2.456391648E+00 2.454653290E+00 2.452916434E+00 2.451181378E+00 2.449450239E+00
 2.447719090E+00 2.445995116E+00 2.444275020E+00 2.442559332E+00 2.440858437E+00
 2.439157806E+00 2.437473755E+00 2.435804177E+00 2.434153880E+00 2.432549704E+00
 2.430970803E+00 2.430285740E+00 2.429600744E+00 2.428925123E+00 2.428276023E+00
 2.427676664E+00 2.427137556E+00 2.426623898E+00 2.426078284E+00 2.425535214E+00
 2.425097460E+00 2.424748681E+00 2.424377379E+00 2.424126609E+00 2.423991711E+00
 2.423840283E+00 2.423785535E+00 2.423894189E+00 2.424120984E+00 2.424415475E+00
 2.424768287E+00 2.425173154E+00 2.425614301E+00 2.426101520E+00 2.426646771E+00
 2.427220966E+00 2.427799131E+00 2.428391498E+00 2.429016842E+00 2.429665905E+00
 2.430320046E+00 2.430970803E+00 2.432526637E+00 2.434126035E+00 2.435726861E+00
 2.437375212E+00 2.439044479E+00 2.440722931E+00 2.442404428E+00 2.444096901E+00
 2.445799427E+00 2.447509911E+00 2.449223687E+00 2.450939459E+00 2.452660103E+00
 2.454380849E+00 2.456107229E+00 2.457834092E+00 2.459563314E+00 2.461293922E+00
 2.463024989E+00 2.464757175E+00 2.466489359E+00 2.468222211E+00 2.469955135E+00
 2.471688333E+00 2.473421423E+00 2.475154133E+00 2.476886704E+00 2.478619456E+00
 2.480351930E+00 2.482084351E+00 2.483816057E+00 2.485546874E+00 2.487277454E+00
 2.489006705E+00 2.490735956E+00 2.492465179E+00 2.494194401E+00 2.495922352E+00
 2.497648691E+00 2.499375028E+00 2.501101323E+00 2.502827618E+00 2.504551784E+00
 2.506275303E+00 2.507998822E+00 2.509722340E+00 2.511445609E+00 2.513166242E+00
 2.514886865E+00 2.516607488E+00 2.518328109E+00 2.520047678E+00 2.521765563E+00
 2.523483449E+00 2.525201334E+00 2.526919225E+00 2.528636116E+00 2.530352581E+00
 2.532069047E+00 2.533785512E+00 2.535502018E+00 2.537218571E+00 2.538935085E+00
 2.540651596E+00 2.542368106E+00 2.544084627E+00 2.545801170E+00 2.547517714E+00
 2.549234264E+00 2.550950819E+00 2.552667375E+00 2.554383976E+00 2.556100555E+00
 2.557817090E+00 2.559533624E+00 2.561250379E+00 2.562963497E+00 2.564685045E+00
 2.566367336E+00
 -1.502240746E+00 -1.502321479E+00 -1.502402211E+00 -1.502482944E+00 -1.502563676E+00
 -1.502644409E+00 -1.502725141E+00 -1.502805874E+00 -1.502886606E+00 -1.502967339E+00
 -1.503048071E+00 -1.503128804E+00 -1.503209536E+00 -1.503290269E+00 -1.503371001E+00
 -1.503451734E+00 -1.503532466E+00 -1.503613198E+00 -1.503693931E+00 -1.503774663E+00
 -1.503855396E+00 -1.503936128E+00 -1.504016861E+00 -1.504097593E+00 -1.504178326E+00
 -1.504259058E+00 -1.504339791E+00 -1.504420523E+00 -1.504501256E+00 -1.504581988E+00
 -1.504662721E+00 -1.504743454E+00 -1.505199044E+00 -1.505524975E+00 -1.505874318E+00
 -1.506214876E+00 -1.506560111E+00 -1.506899739E+00 -1.507240927E+00 -1.507583544E+00
 -1.507926364E+00 -1.508269342E+00 -1.508608652E+00 -1.508928915E+00 -1.509244387E+00
 -1.509561866E+00 -1.509887671E+00 -1.510236760E+00 -1.510608138E+00 -1.510981089E+00
 -1.511346143E+00 -1.511698637E+00 -1.512039381E+00 -1.512378200E+00 -1.512717080E+00
 -1.513052671E+00 -1.513386593E+00 -1.513717071E+00 -1.514038947E+00 -1.514360823E+00
 -1.514671594E+00 -1.514979756E+00 -1.515280110E+00 -1.515570102E+00 -1.515860094E+00
 -1.516150087E+00 -1.516439936E+00 -1.516716123E+00 -1.516983157E+00 -1.517247624E+00
 -1.517499229E+00 -1.517750316E+00 -1.517979186E+00 -1.518200721E+00 -1.518422256E+00
 -1.518643765E+00 -1.518864675E+00 -1.519059643E+00 -1.519251912E+00 -1.519430953E+00
 -1.519596555E+00 -1.519760013E+00 -1.519901021E+00 -1.520041838E+00 -1.520161294E+00
 -1.520269453E+00 -1.520369166E+00 -1.520441781E+00 -1.520514248E+00 -1.520559154E+00
 -1.520597396E+00 -1.520619247E+00 -1.520615064E+00 -1.520610444E+00 -1.520557542E+00
 -1.520502574E+00 -1.520425059E+00 -1.520319511E+00 -1.520188321E+00 -1.520012121E+00
 -1.519835921E+00 -1.519599778E+00 -1.519336941E+00 -1.519046586E+00 -1.518679197E+00
 -1.518310975E+00 -1.517873152E+00 -1.517382852E+00 -1.516831258E+00 -1.516156908E+00
 -1.515425709E+00 -1.515118181E+00 -1.514810396E+00 -1.514482838E+00 -1.514106043E+00
 -1.513653860E+00 -1.513130487E+00 -1.512582781E+00 -1.512066479E+00 -1.511548307E+00
 -1.510937044E+00 -1.510272502E+00 -1.509619774E+00 -1.508911922E+00 -1.508173160E+00
 -1.507437638E+00 -1.506688694E+00 -1.505945631E+00 -1.505229709E+00 -1.504538895E+00
 -1.503875978E+00 -1.503243485E+00 -1.502635771E+00 -1.502064324E+00 -1.501547950E+00
 -1.501063964E+00 -1.500584730E+00 -1.500123167E+00 -1.499707379E+00 -1.499329673E+00
 -1.498960838E+00 -1.498586061E+00 -1.497822199E+00 -1.497154385E+00 -1.496489990E+00
 -1.495954342E+00 -1.495487826E+00 -1.495055588E+00 -1.494635275E+00 -1.494261687E+00
 -1.493936935E+00 -1.493657234E+00 -1.493398185E+00 -1.493152851E+00 -1.492944546E+00
 -1.492736724E+00 -1.492583192E+00 -1.492434564E+00 -1.492316871E+00 -1.492221648E+00
 -1.492134996E+00 -1.492075062E+00 -1.492015102E+00 -1.491979625E+00 -1.491947328E+00
 -1.491938163E+00 -1.491959856E+00 -1.492001888E+00 -1.492049469E+00 -1.492089895E+00
 -1.492140745E+00 -1.492193440E+00 -1.492266040E+00 -1.492357307E+00 -1.492453000E+00
 -1.492570253E+00 -1.492687511E+00 -1.492805219E+00 -1.492922926E+00 -1.493058015E+00
 -1.493212356E+00 -1.493366718E+00 -1.493521518E+00 -1.493676322E+00 -1.493853264E+00
 -1.494036419E+00 -1.494219573E+00 -1.494402728E+00 -1.494588208E+00 -1.494796742E+00
 -1.495005352E+00 -1.495213962E+00 -1.495422580E+00 -1.495639713E+00 -1.495869779E+00
 -1.496099845E+00 -1.496329911E+00 -1.496559942E+00 -1.496797314E+00 -1.497037743E+00
 -1.497278171E+00 -1.497518600E+00 -1.497758776E+00 -1.497998622E+00 -1.498238706E+00
 -1.498478810E+00 -1.498718914E+00 -1.498958942E+00 -1.499198812E+00 -1.499438678E+00
 -1.499678501E+00 -1.499918284E+00 -1.500158066E+00 -1.500397567E+00 -1.500637219E+00
 -1.500877151E+00 -1.501117087E+00 -1.501355493E+00 -1.501603280E+00 -1.501824920E+00
 -1.502240746E+00
 1.106451613E-01 1.106451613E-01 1.106451613E-01 1.106451613E-01 1.106451613E-01
 1.106451613E-01 1.106451613E-01 1.106451613E-01 1.106451613E-01 1.106451613E-01
 1.106451613E-01 1.106451613E-01 1.106451613E-01 1.106451613E-01 1.106451613E-01
 1.106451613E-01 1.106451613E-01 1.106451613E-01 1.106451613E-01 1.106451613E-01
 1.106451613E-01 1.106451613E-01 1.106451613E-01 1.106451613E-01 1.106451613E-01
 1.106451613E-01 1.106451613E-01 1.106451613E-01 1.106451613E-01 1.106451613E-01
 1.106451613E-01 1.106451613E-01 1.106451613E-01 1.106451613E-01 1.106451613E-01
 1.106451613E-01 1.106451613E-01 1.106451613E-01 1.106451613E-01 1.106451613E-01
 1.106451613E-01 1.106451613E-01 1.106451613E-01 1.106451613E-01 1.106451613E-01
 1.106451613E-01 1.106451613E-01 1.106451613E-01 1.106451613E-01 1.106451613E-01
 1.106451613E-01 1.106451613E-01 1.106451613E-01 1.106451613E-01 1.106451613E-01
 1.106451613E-01 1.106451613E-01 1.106451613E-01 1.106451613E-01 1.106451613E-01
 1.106451613E-01 1.106451613E-01 1.106451613E-01 1.106451613E-01 1.106451613E-01
 1.106451613E-01 1.106451613E-01 1.106451613E-01 1.106451613E-01 1.106451613E-01
 1.106451613E-01 1.106451613E-01 1.106451613E-01 1.106451613E-01 1.106451613E-01
 1.106451613E-01 1.106451613E-01 1.106451613E-01 1.106451613E-01 1.106451613E-01
 1.106451613E-01 1.106451613E-01 1.106451613E-01 1.106451613E-01 1.106451613E-01
 1.106451613E-01 1.106451613E-01 1.106451613E-01 1.106451613E-01 1.106451613E-01
 1.106451613E-01 1.106451613E-01 1.106451613E-01 1.106451613E-01 1.106451613E-01
 1.106451613E-01 1.106451613E-01 1.106451613E-01 1.106451613E-01 1.106451613E-01
 1.106451613E-01 1.106451613E-01 1.106451613E-01 1.106451613E-01 1.106451613E-01
 1.106451613E-01 1.106451613E-01 1.106451613E-01 1.106451613E-01 1.106451613E-01
 1.106451613E-01 1.106451613E-01 1.106451613E-01 1.106451613E-01 1.106451613E-01
 1.106451613E-01 1.106451613E-01 1.106451613E-01 1.106451613E-01 1.106451613E-01
 1.106451613E-01 1.106451613E-01 1.106451613E-01 1.106451613E-01 1.106451613E-01
 1.106451613E-01 1.106451613E-01 1.106451613E-01 1.106451613E-01 1.106451613E-01
 1.106451613E-01 1.106451613E-01 1.106451613E-01 1.106451613E-01 1.106451613E-01
 1.106451613E-01 1.106451613E-01 1.106451613E-01 1.106451613E-01 1.106451613E-01
 1.106451613E-01 1.106451613E-01 1.106451613E-01 1.106451613E-01 1.106451613E-01
 1.106451613E-01 1.106451613E-01 1.106451613E-01 1.106451613E-01 1.106451613E-01
 1.106451613E-01 1.106451613E-01 1.106451613E-01 1.106451613E-01 1.106451613E-01
 1.106451613E-01 1.106451613E-01 1.106451613E-01 1.106451613E-01 1.106451613E-01
 1.106451613E-01 1.106451613E-01 1.106451613E-01 1.106451613E-01 1.106451613E-01
 1.106451613E-01 1.106451613E-01 1.106451613E-01 1.106451613E-01 1.106451613E-01
 1.106451613E-01 1.106451613E-01 1.106451613E-01 1.106451613E-01 1.106451613E-01
 1.106451613E-01 1.106451613E-01 1.106451613E-01 1.106451613E-01 1.106451613E-01
 1.106451613E-01 1.106451613E-01 1.106451613E-01 1.106451613E-01 1.106451613E-01
 1.106451613E-01 1.106451613E-01 1.106451613E-01 1.106451613E-01 1.106451613E-01
 1.106451613E-01 1.106451613E-01 1.106451613E-01 1.106451613E-01 1.106451613E-01
 1.106451613E-01 1.106451613E-01 1.106451613E-01 1.106451613E-01 1.106451613E-01
 1.106451613E-01 1.106451613E-01 1.106451613E-01 1.106451613E-01 1.106451613E-01
 1.106451613E-01 1.106451613E-01 1.106451613E-01 1.106451613E-01 1.106451613E-01
 1.106451613E-01 1.106451613E-01 1.106451613E-01 1.106451613E-01 1.106451613E-01
 1.106451613E-01 1.106451613E-01 1.106451613E-01 1.106451613E-01 1.106451613E-01
 1.106451613E-01
 -6.850824469E+00 -3.732415919E+00 -8.634435176E+00 -1.338839356E+01 -1.788861492E+01
 -2.216673274E+01 -2.638161847E+01 -3.064842454E+01 -3.489174853E+01 -3.897181574E+01
 -4.304107358E+01 -4.687351515E+01 -5.085314956E+01 -5.470818453E+01 -5.822149582E+01
 -6.137963356E+01 -6.403543450E+01 -6.760949375E+01 -7.040388918E+01 -7.175703512E+01
 -7.298452954E+01 -7.385423421E+01 -7.403885919E+01 -7.365205839E+01 -7.318028659E+01
 -7.271264904E+01 -7.247525361E+01 -7.273228463E+01 -7.440313559E+01 -8.058126110E+01
 -1.010231146E+02 -8.230682795E+01 -2.736881402E+01 -2.690143408E+00 5.544170404E+00
 1.227233868E+01 1.916779473E+01 2.648490785E+01 3.297983233E+01 3.877074778E+01
 4.252214920E+01 4.607351738E+01 5.328771360E+01 6.300336170E+01 7.162530274E+01
 7.752675367E+01 7.881980679E+01 7.597550304E+01 7.133015469E+01 6.716423578E+01
 6.549701230E+01 6.647889851E+01 6.703547082E+01 6.585205074E+01 6.413437137E+01
 6.341570513E+01 6.349875198E+01 6.328442889E+01 6.239681193E+01 6.163474609E+01
 6.147922913E+01 6.180684561E+01 6.249830294E+01 6.261277113E+01 6.124816867E+01
 5.899475454E+01 5.945570046E+01 6.090389436E+01 6.153663706E+01 6.221434138E+01
 6.204435318E+01 6.508871426E+01 6.936503980E+01 7.259012459E+01 7.386849079E+01
 7.418468924E+01 7.892483793E+01 8.319579565E+01 8.753893631E+01 9.295662275E+01
 9.684795722E+01 1.036177491E+02 1.080026463E+02 1.117003476E+02 1.209608087E+02
 1.281218526E+02 1.372730918E+02 1.476867060E+02 1.571234880E+02 1.661636772E+02
 1.745824372E+02 1.859624312E+02 1.952338030E+02 2.072885490E+02 2.203347166E+02
 2.316574222E+02 2.444561981E+02 2.577801901E+02 2.742944707E+02 2.882995435E+02
 3.027925595E+02 3.208392352E+02 3.368813044E+02 3.555428527E+02 3.743238921E+02
 3.913708418E+02 4.087908771E+02 4.231639323E+02 4.345304744E+02 4.395773097E+02
 4.347884640E+02 4.259137234E+02 4.145251914E+02 3.933198823E+02 3.547915972E+02
 3.010583780E+02 2.499134762E+02 2.094208943E+02 1.398088829E+02 -3.310086260E+01
 -2.534202012E+02 -3.845614598E+02 -6.210858348E+02 -1.008365270E+03 -1.204029972E+03
 -1.466107206E+03 -2.082851253E+03 -2.462732317E+03 -2.422581790E+03 -2.400670205E+03
 -2.446546687E+03 -2.452636914E+03 -2.462249106E+03 -2.501359571E+03 -2.461896261E+03
 -2.326436539E+03 -2.221102416E+03 -2.197808123E+03 -2.169627894E+03 -2.074439859E+03
 -1.961678545E+03 -1.912727108E+03 -1.843653632E+03 -1.715049035E+03 -1.642395608E+03
 -1.578272089E+03 -1.491580897E+03 -1.425011281E+03 -1.378858139E+03 -1.340291929E+03
 -1.301011908E+03 -1.265198659E+03 -1.236043923E+03 -1.212094457E+03 -1.193159327E+03
 -1.177135048E+03 -1.161690779E+03 -1.146542703E+03 -1.132294863E+03 -1.117756977E+03
 -1.100190563E+03 -1.083454657E+03 -1.066861729E+03 -1.049882634E+03 -1.033322231E+03
 -1.014314296E+03 -9.954820892E+02 -9.789876635E+02 -9.636582110E+02 -9.483607042E+02
 -9.332085107E+02 -9.169913972E+02 -9.005133791E+02 -8.852487029E+02 -8.701175647E+02
 -8.556704030E+02 -8.414550213E+02 -8.268234648E+02 -8.124191702E+02 -7.974950438E+02
 -7.822200308E+02 -7.666465793E+02 -7.515588519E+02 -7.365548087E+02 -7.213916151E+02
 -7.068723548E+02 -6.921982283E+02 -6.775379491E+02 -6.615852398E+02 -6.451713207E+02
 -6.290021674E+02 -6.121971268E+02 -5.950839433E+02 -5.767221377E+02 -5.582824727E+02
 -5.397728397E+02 -5.206611238E+02 -5.009564806E+02 -4.801930615E+02 -4.593658676E+02